 VARIABLES = "X", "Y", "Z"
 ZONE F=FEPOINT, ET=QUADRILATERAL, N=          18 E=           6
  -2.0000000000000000       -3.0000000000000000        0.0000000000000000     
  -1.0000000000000000       -3.0000000000000000        0.0000000000000000     
   1.0000000000000000       -3.0000000000000000        0.0000000000000000     
   2.0000000000000000       -3.0000000000000000        0.0000000000000000     
  -3.0000000000000000       -2.0000000000000000        0.0000000000000000     
  -2.0000000000000000       -2.0000000000000000        0.0000000000000000     
  -1.0000000000000000       -2.0000000000000000        0.0000000000000000     
   1.0000000000000000       -2.0000000000000000        0.0000000000000000     
   2.0000000000000000       -2.0000000000000000        0.0000000000000000     
   3.0000000000000000       -2.0000000000000000        0.0000000000000000     
  -3.0000000000000000       -1.0000000000000000        0.0000000000000000     
  -2.0000000000000000       -1.0000000000000000        0.0000000000000000     
   2.0000000000000000       -1.0000000000000000        0.0000000000000000     
   3.0000000000000000       -1.0000000000000000        0.0000000000000000     
  -3.0000000000000000        0.0000000000000000        0.0000000000000000     
  -2.0000000000000000        0.0000000000000000        0.0000000000000000     
   2.0000000000000000        0.0000000000000000        0.0000000000000000     
   3.0000000000000000        0.0000000000000000        0.0000000000000000     
           1           2           7           6
           3           4           9           8
           5           6          12          11
           9          10          14          13
          11          12          16          15
          13          14          18          17
