  TITLE = "SEM Quad mesh" 
  VARIABLES = "x", "y", "z", "material ID"
 ZONE I=           3 ,J=           3 , F=POINT
 -0.73827E+05  0.21982E+04  0.00000E+00 0
 -0.73356E+05  0.18750E+04  0.00000E+00 0
 -0.72885E+05  0.15519E+04  0.00000E+00 0
 -0.73725E+05  0.26772E+04  0.00000E+00 0
 -0.73132E+05  0.24984E+04  0.00000E+00 0
 -0.72539E+05  0.23196E+04  0.00000E+00 0
 -0.73624E+05  0.31561E+04  0.00000E+00 0
 -0.72908E+05  0.31217E+04  0.00000E+00 0
 -0.72193E+05  0.30872E+04  0.00000E+00 0
 ZONE I=           3 ,J=           3 , F=POINT
 -0.72885E+05  0.15519E+04  0.00000E+00 0
 -0.71804E+05  0.15324E+04  0.00000E+00 0
 -0.70723E+05  0.15128E+04  0.00000E+00 0
 -0.72539E+05  0.23196E+04  0.00000E+00 0
 -0.71606E+05  0.22923E+04  0.00000E+00 0
 -0.70673E+05  0.22651E+04  0.00000E+00 0
 -0.72193E+05  0.30872E+04  0.00000E+00 0
 -0.71408E+05  0.30523E+04  0.00000E+00 0
 -0.70623E+05  0.30173E+04  0.00000E+00 0
 ZONE I=           3 ,J=           3 , F=POINT
 -0.70723E+05  0.15128E+04  0.00000E+00 0
 -0.69881E+05  0.15075E+04  0.00000E+00 0
 -0.69038E+05  0.15022E+04  0.00000E+00 0
 -0.70673E+05  0.22651E+04  0.00000E+00 0
 -0.69854E+05  0.22588E+04  0.00000E+00 0
 -0.69035E+05  0.22526E+04  0.00000E+00 0
 -0.70623E+05  0.30173E+04  0.00000E+00 0
 -0.69828E+05  0.30101E+04  0.00000E+00 0
 -0.69033E+05  0.30030E+04  0.00000E+00 0
 ZONE I=           3 ,J=           3 , F=POINT
 -0.69038E+05  0.15022E+04  0.00000E+00 0
 -0.68272E+05  0.15012E+04  0.00000E+00 0
 -0.67505E+05  0.15003E+04  0.00000E+00 0
 -0.69035E+05  0.22526E+04  0.00000E+00 0
 -0.68270E+05  0.22515E+04  0.00000E+00 0
 -0.67505E+05  0.22503E+04  0.00000E+00 0
 -0.69033E+05  0.30030E+04  0.00000E+00 0
 -0.68269E+05  0.30017E+04  0.00000E+00 0
 -0.67505E+05  0.30004E+04  0.00000E+00 0
 ZONE I=           3 ,J=           3 , F=POINT
 -0.67505E+05  0.15003E+04  0.00000E+00 0
 -0.66753E+05  0.15002E+04  0.00000E+00 0
 -0.66001E+05  0.15000E+04  0.00000E+00 0
 -0.67505E+05  0.22503E+04  0.00000E+00 0
 -0.66753E+05  0.22502E+04  0.00000E+00 0
 -0.66001E+05  0.22500E+04  0.00000E+00 0
 -0.67505E+05  0.30004E+04  0.00000E+00 0
 -0.66753E+05  0.30002E+04  0.00000E+00 0
 -0.66001E+05  0.30000E+04  0.00000E+00 0
 ZONE I=           3 ,J=           3 , F=POINT
 -0.66001E+05  0.15000E+04  0.00000E+00 0
 -0.65250E+05  0.15000E+04  0.00000E+00 0
 -0.64500E+05  0.15000E+04  0.00000E+00 0
 -0.66001E+05  0.22500E+04  0.00000E+00 0
 -0.65250E+05  0.22500E+04  0.00000E+00 0
 -0.64500E+05  0.22500E+04  0.00000E+00 0
 -0.66001E+05  0.30000E+04  0.00000E+00 0
 -0.65250E+05  0.30000E+04  0.00000E+00 0
 -0.64500E+05  0.30000E+04  0.00000E+00 0
 ZONE I=           3 ,J=           3 , F=POINT
 -0.64500E+05  0.15000E+04  0.00000E+00 0
 -0.63750E+05  0.15000E+04  0.00000E+00 0
 -0.63000E+05  0.15000E+04  0.00000E+00 0
 -0.64500E+05  0.22500E+04  0.00000E+00 0
 -0.63750E+05  0.22500E+04  0.00000E+00 0
 -0.63000E+05  0.22500E+04  0.00000E+00 0
 -0.64500E+05  0.30000E+04  0.00000E+00 0
 -0.63750E+05  0.30000E+04  0.00000E+00 0
 -0.63000E+05  0.30000E+04  0.00000E+00 0
 ZONE I=           3 ,J=           3 , F=POINT
 -0.63000E+05  0.15000E+04  0.00000E+00 0
 -0.62250E+05  0.15000E+04  0.00000E+00 0
 -0.61500E+05  0.15000E+04  0.00000E+00 0
 -0.63000E+05  0.22500E+04  0.00000E+00 0
 -0.62250E+05  0.22500E+04  0.00000E+00 0
 -0.61500E+05  0.22500E+04  0.00000E+00 0
 -0.63000E+05  0.30000E+04  0.00000E+00 0
 -0.62250E+05  0.30000E+04  0.00000E+00 0
 -0.61500E+05  0.30000E+04  0.00000E+00 0
 ZONE I=           3 ,J=           3 , F=POINT
 -0.61500E+05  0.15000E+04  0.00000E+00 0
 -0.60750E+05  0.15000E+04  0.00000E+00 0
 -0.60000E+05  0.15000E+04  0.00000E+00 0
 -0.61500E+05  0.22500E+04  0.00000E+00 0
 -0.60750E+05  0.22500E+04  0.00000E+00 0
 -0.60000E+05  0.22500E+04  0.00000E+00 0
 -0.61500E+05  0.30000E+04  0.00000E+00 0
 -0.60750E+05  0.30000E+04  0.00000E+00 0
 -0.60000E+05  0.30000E+04  0.00000E+00 0
 ZONE I=           3 ,J=           3 , F=POINT
 -0.60000E+05  0.15000E+04  0.00000E+00 0
 -0.59250E+05  0.15000E+04  0.00000E+00 0
 -0.58500E+05  0.15000E+04  0.00000E+00 0
 -0.60000E+05  0.22500E+04  0.00000E+00 0
 -0.59250E+05  0.22500E+04  0.00000E+00 0
 -0.58500E+05  0.22500E+04  0.00000E+00 0
 -0.60000E+05  0.30000E+04  0.00000E+00 0
 -0.59250E+05  0.30000E+04  0.00000E+00 0
 -0.58500E+05  0.30000E+04  0.00000E+00 0
 ZONE I=           3 ,J=           3 , F=POINT
 -0.58500E+05  0.15000E+04  0.00000E+00 0
 -0.57750E+05  0.15000E+04  0.00000E+00 0
 -0.57000E+05  0.15000E+04  0.00000E+00 0
 -0.58500E+05  0.22500E+04  0.00000E+00 0
 -0.57750E+05  0.22500E+04  0.00000E+00 0
 -0.57000E+05  0.22500E+04  0.00000E+00 0
 -0.58500E+05  0.30000E+04  0.00000E+00 0
 -0.57750E+05  0.30000E+04  0.00000E+00 0
 -0.57000E+05  0.30000E+04  0.00000E+00 0
 ZONE I=           3 ,J=           3 , F=POINT
 -0.57000E+05  0.15000E+04  0.00000E+00 0
 -0.56250E+05  0.15000E+04  0.00000E+00 0
 -0.55500E+05  0.15000E+04  0.00000E+00 0
 -0.57000E+05  0.22500E+04  0.00000E+00 0
 -0.56250E+05  0.22500E+04  0.00000E+00 0
 -0.55500E+05  0.22500E+04  0.00000E+00 0
 -0.57000E+05  0.30000E+04  0.00000E+00 0
 -0.56250E+05  0.30000E+04  0.00000E+00 0
 -0.55500E+05  0.30000E+04  0.00000E+00 0
 ZONE I=           3 ,J=           3 , F=POINT
 -0.55500E+05  0.15000E+04  0.00000E+00 0
 -0.54750E+05  0.15000E+04  0.00000E+00 0
 -0.54000E+05  0.15000E+04  0.00000E+00 0
 -0.55500E+05  0.22500E+04  0.00000E+00 0
 -0.54750E+05  0.22500E+04  0.00000E+00 0
 -0.54000E+05  0.22500E+04  0.00000E+00 0
 -0.55500E+05  0.30000E+04  0.00000E+00 0
 -0.54750E+05  0.30000E+04  0.00000E+00 0
 -0.54000E+05  0.30000E+04  0.00000E+00 0
 ZONE I=           3 ,J=           3 , F=POINT
 -0.54000E+05  0.15000E+04  0.00000E+00 0
 -0.53250E+05  0.15000E+04  0.00000E+00 0
 -0.52500E+05  0.15000E+04  0.00000E+00 0
 -0.54000E+05  0.22500E+04  0.00000E+00 0
 -0.53250E+05  0.22500E+04  0.00000E+00 0
 -0.52500E+05  0.22500E+04  0.00000E+00 0
 -0.54000E+05  0.30000E+04  0.00000E+00 0
 -0.53250E+05  0.30000E+04  0.00000E+00 0
 -0.52500E+05  0.30000E+04  0.00000E+00 0
 ZONE I=           3 ,J=           3 , F=POINT
 -0.52500E+05  0.15000E+04  0.00000E+00 0
 -0.51750E+05  0.15000E+04  0.00000E+00 0
 -0.51000E+05  0.15000E+04  0.00000E+00 0
 -0.52500E+05  0.22500E+04  0.00000E+00 0
 -0.51750E+05  0.22500E+04  0.00000E+00 0
 -0.51000E+05  0.22500E+04  0.00000E+00 0
 -0.52500E+05  0.30000E+04  0.00000E+00 0
 -0.51750E+05  0.30000E+04  0.00000E+00 0
 -0.51000E+05  0.30000E+04  0.00000E+00 0
 ZONE I=           3 ,J=           3 , F=POINT
 -0.51000E+05  0.15000E+04  0.00000E+00 0
 -0.50250E+05  0.15000E+04  0.00000E+00 0
 -0.49500E+05  0.15000E+04  0.00000E+00 0
 -0.51000E+05  0.22500E+04  0.00000E+00 0
 -0.50250E+05  0.22500E+04  0.00000E+00 0
 -0.49500E+05  0.22500E+04  0.00000E+00 0
 -0.51000E+05  0.30000E+04  0.00000E+00 0
 -0.50250E+05  0.30000E+04  0.00000E+00 0
 -0.49500E+05  0.30000E+04  0.00000E+00 0
 ZONE I=           3 ,J=           3 , F=POINT
 -0.49500E+05  0.15000E+04  0.00000E+00 0
 -0.48750E+05  0.15000E+04  0.00000E+00 0
 -0.48000E+05  0.15000E+04  0.00000E+00 0
 -0.49500E+05  0.22500E+04  0.00000E+00 0
 -0.48750E+05  0.22500E+04  0.00000E+00 0
 -0.48000E+05  0.22500E+04  0.00000E+00 0
 -0.49500E+05  0.30000E+04  0.00000E+00 0
 -0.48750E+05  0.30000E+04  0.00000E+00 0
 -0.48000E+05  0.30000E+04  0.00000E+00 0
 ZONE I=           3 ,J=           3 , F=POINT
 -0.48000E+05  0.15000E+04  0.00000E+00 0
 -0.47250E+05  0.15000E+04  0.00000E+00 0
 -0.46500E+05  0.15000E+04  0.00000E+00 0
 -0.48000E+05  0.22500E+04  0.00000E+00 0
 -0.47250E+05  0.22500E+04  0.00000E+00 0
 -0.46500E+05  0.22500E+04  0.00000E+00 0
 -0.48000E+05  0.30000E+04  0.00000E+00 0
 -0.47250E+05  0.30000E+04  0.00000E+00 0
 -0.46500E+05  0.30000E+04  0.00000E+00 0
 ZONE I=           3 ,J=           3 , F=POINT
 -0.46500E+05  0.15000E+04  0.00000E+00 0
 -0.45750E+05  0.15000E+04  0.00000E+00 0
 -0.45000E+05  0.15000E+04  0.00000E+00 0
 -0.46500E+05  0.22500E+04  0.00000E+00 0
 -0.45750E+05  0.22500E+04  0.00000E+00 0
 -0.45000E+05  0.22500E+04  0.00000E+00 0
 -0.46500E+05  0.30000E+04  0.00000E+00 0
 -0.45750E+05  0.30000E+04  0.00000E+00 0
 -0.45000E+05  0.30000E+04  0.00000E+00 0
 ZONE I=           3 ,J=           3 , F=POINT
 -0.45000E+05  0.15000E+04  0.00000E+00 0
 -0.44250E+05  0.15000E+04  0.00000E+00 0
 -0.43500E+05  0.15000E+04  0.00000E+00 0
 -0.45000E+05  0.22500E+04  0.00000E+00 0
 -0.44250E+05  0.22500E+04  0.00000E+00 0
 -0.43500E+05  0.22500E+04  0.00000E+00 0
 -0.45000E+05  0.30000E+04  0.00000E+00 0
 -0.44250E+05  0.30000E+04  0.00000E+00 0
 -0.43500E+05  0.30000E+04  0.00000E+00 0
 ZONE I=           3 ,J=           3 , F=POINT
 -0.43500E+05  0.15000E+04  0.00000E+00 0
 -0.42750E+05  0.15000E+04  0.00000E+00 0
 -0.42000E+05  0.15000E+04  0.00000E+00 0
 -0.43500E+05  0.22500E+04  0.00000E+00 0
 -0.42750E+05  0.22500E+04  0.00000E+00 0
 -0.42000E+05  0.22500E+04  0.00000E+00 0
 -0.43500E+05  0.30000E+04  0.00000E+00 0
 -0.42750E+05  0.30000E+04  0.00000E+00 0
 -0.42000E+05  0.30000E+04  0.00000E+00 0
 ZONE I=           3 ,J=           3 , F=POINT
 -0.42000E+05  0.15000E+04  0.00000E+00 0
 -0.41250E+05  0.15000E+04  0.00000E+00 0
 -0.40500E+05  0.15000E+04  0.00000E+00 0
 -0.42000E+05  0.22500E+04  0.00000E+00 0
 -0.41250E+05  0.22500E+04  0.00000E+00 0
 -0.40500E+05  0.22500E+04  0.00000E+00 0
 -0.42000E+05  0.30000E+04  0.00000E+00 0
 -0.41250E+05  0.30000E+04  0.00000E+00 0
 -0.40500E+05  0.30000E+04  0.00000E+00 0
 ZONE I=           3 ,J=           3 , F=POINT
 -0.40500E+05  0.15000E+04  0.00000E+00 0
 -0.39750E+05  0.15000E+04  0.00000E+00 0
 -0.39000E+05  0.15000E+04  0.00000E+00 0
 -0.40500E+05  0.22500E+04  0.00000E+00 0
 -0.39750E+05  0.22500E+04  0.00000E+00 0
 -0.39000E+05  0.22500E+04  0.00000E+00 0
 -0.40500E+05  0.30000E+04  0.00000E+00 0
 -0.39750E+05  0.30000E+04  0.00000E+00 0
 -0.39000E+05  0.30000E+04  0.00000E+00 0
 ZONE I=           3 ,J=           3 , F=POINT
 -0.39000E+05  0.15000E+04  0.00000E+00 0
 -0.38250E+05  0.15000E+04  0.00000E+00 0
 -0.37500E+05  0.15000E+04  0.00000E+00 0
 -0.39000E+05  0.22500E+04  0.00000E+00 0
 -0.38250E+05  0.22500E+04  0.00000E+00 0
 -0.37500E+05  0.22500E+04  0.00000E+00 0
 -0.39000E+05  0.30000E+04  0.00000E+00 0
 -0.38250E+05  0.30000E+04  0.00000E+00 0
 -0.37500E+05  0.30000E+04  0.00000E+00 0
 ZONE I=           3 ,J=           3 , F=POINT
 -0.37500E+05  0.15000E+04  0.00000E+00 0
 -0.36750E+05  0.14999E+04  0.00000E+00 0
 -0.36000E+05  0.14999E+04  0.00000E+00 0
 -0.37500E+05  0.22500E+04  0.00000E+00 0
 -0.36750E+05  0.22499E+04  0.00000E+00 0
 -0.36000E+05  0.22499E+04  0.00000E+00 0
 -0.37500E+05  0.30000E+04  0.00000E+00 0
 -0.36750E+05  0.29999E+04  0.00000E+00 0
 -0.36000E+05  0.29998E+04  0.00000E+00 0
 ZONE I=           3 ,J=           3 , F=POINT
 -0.36000E+05  0.14999E+04  0.00000E+00 0
 -0.35251E+05  0.14993E+04  0.00000E+00 0
 -0.34502E+05  0.14988E+04  0.00000E+00 0
 -0.36000E+05  0.22499E+04  0.00000E+00 0
 -0.35251E+05  0.22492E+04  0.00000E+00 0
 -0.34502E+05  0.22485E+04  0.00000E+00 0
 -0.36000E+05  0.29998E+04  0.00000E+00 0
 -0.35251E+05  0.29991E+04  0.00000E+00 0
 -0.34502E+05  0.29983E+04  0.00000E+00 0
 ZONE I=           3 ,J=           3 , F=POINT
 -0.34502E+05  0.14988E+04  0.00000E+00 0
 -0.33757E+05  0.14949E+04  0.00000E+00 0
 -0.33012E+05  0.14910E+04  0.00000E+00 0
 -0.34502E+05  0.22485E+04  0.00000E+00 0
 -0.33756E+05  0.22441E+04  0.00000E+00 0
 -0.33010E+05  0.22397E+04  0.00000E+00 0
 -0.34502E+05  0.29983E+04  0.00000E+00 0
 -0.33755E+05  0.29934E+04  0.00000E+00 0
 -0.33008E+05  0.29885E+04  0.00000E+00 0
 ZONE I=           3 ,J=           3 , F=POINT
 -0.33012E+05  0.14910E+04  0.00000E+00 0
 -0.32286E+05  0.14724E+04  0.00000E+00 0
 -0.31559E+05  0.14539E+04  0.00000E+00 0
 -0.33010E+05  0.22397E+04  0.00000E+00 0
 -0.32273E+05  0.22194E+04  0.00000E+00 0
 -0.31537E+05  0.21990E+04  0.00000E+00 0
 -0.33008E+05  0.29885E+04  0.00000E+00 0
 -0.32261E+05  0.29663E+04  0.00000E+00 0
 -0.31514E+05  0.29441E+04  0.00000E+00 0
 ZONE I=           3 ,J=           3 , F=POINT
 -0.31559E+05  0.14539E+04  0.00000E+00 0
 -0.30919E+05  0.13911E+04  0.00000E+00 0
 -0.30280E+05  0.13283E+04  0.00000E+00 0
 -0.31537E+05  0.21990E+04  0.00000E+00 0
 -0.30812E+05  0.21257E+04  0.00000E+00 0
 -0.30088E+05  0.20524E+04  0.00000E+00 0
 -0.31514E+05  0.29441E+04  0.00000E+00 0
 -0.30705E+05  0.28603E+04  0.00000E+00 0
 -0.29895E+05  0.27764E+04  0.00000E+00 0
 ZONE I=           3 ,J=           3 , F=POINT
  0.30586E+05  0.13283E+04  0.00000E+00 0
  0.31252E+05  0.13911E+04  0.00000E+00 0
  0.31917E+05  0.14539E+04  0.00000E+00 0
  0.30289E+05  0.20524E+04  0.00000E+00 0
  0.31034E+05  0.21257E+04  0.00000E+00 0
  0.31778E+05  0.21990E+04  0.00000E+00 0
  0.29992E+05  0.27764E+04  0.00000E+00 0
  0.30815E+05  0.28603E+04  0.00000E+00 0
  0.31639E+05  0.29441E+04  0.00000E+00 0
 ZONE I=           3 ,J=           3 , F=POINT
  0.31917E+05  0.14539E+04  0.00000E+00 0
  0.32653E+05  0.14724E+04  0.00000E+00 0
  0.33388E+05  0.14910E+04  0.00000E+00 0
  0.31778E+05  0.21990E+04  0.00000E+00 0
  0.32522E+05  0.22194E+04  0.00000E+00 0
  0.33265E+05  0.22397E+04  0.00000E+00 0
  0.31639E+05  0.29441E+04  0.00000E+00 0
  0.32390E+05  0.29663E+04  0.00000E+00 0
  0.33142E+05  0.29885E+04  0.00000E+00 0
 ZONE I=           3 ,J=           3 , F=POINT
  0.33388E+05  0.14910E+04  0.00000E+00 0
  0.34135E+05  0.14949E+04  0.00000E+00 0
  0.34881E+05  0.14988E+04  0.00000E+00 0
  0.33265E+05  0.22397E+04  0.00000E+00 0
  0.34013E+05  0.22441E+04  0.00000E+00 0
  0.34760E+05  0.22485E+04  0.00000E+00 0
  0.33142E+05  0.29885E+04  0.00000E+00 0
  0.33890E+05  0.29934E+04  0.00000E+00 0
  0.34639E+05  0.29983E+04  0.00000E+00 0
 ZONE I=           3 ,J=           3 , F=POINT
  0.34881E+05  0.14988E+04  0.00000E+00 0
  0.35631E+05  0.14993E+04  0.00000E+00 0
  0.36380E+05  0.14999E+04  0.00000E+00 0
  0.34760E+05  0.22485E+04  0.00000E+00 0
  0.35509E+05  0.22492E+04  0.00000E+00 0
  0.36259E+05  0.22499E+04  0.00000E+00 0
  0.34639E+05  0.29983E+04  0.00000E+00 0
  0.35388E+05  0.29991E+04  0.00000E+00 0
  0.36137E+05  0.29998E+04  0.00000E+00 0
 ZONE I=           3 ,J=           3 , F=POINT
  0.36380E+05  0.14999E+04  0.00000E+00 0
  0.37130E+05  0.14999E+04  0.00000E+00 0
  0.37880E+05  0.15000E+04  0.00000E+00 0
  0.36259E+05  0.22499E+04  0.00000E+00 0
  0.37009E+05  0.22499E+04  0.00000E+00 0
  0.37758E+05  0.22500E+04  0.00000E+00 0
  0.36137E+05  0.29998E+04  0.00000E+00 0
  0.36887E+05  0.29999E+04  0.00000E+00 0
  0.37637E+05  0.30000E+04  0.00000E+00 0
 ZONE I=           3 ,J=           3 , F=POINT
  0.37880E+05  0.15000E+04  0.00000E+00 0
  0.38630E+05  0.15000E+04  0.00000E+00 0
  0.39380E+05  0.15000E+04  0.00000E+00 0
  0.37758E+05  0.22500E+04  0.00000E+00 0
  0.38508E+05  0.22500E+04  0.00000E+00 0
  0.39258E+05  0.22500E+04  0.00000E+00 0
  0.37637E+05  0.30000E+04  0.00000E+00 0
  0.38387E+05  0.30000E+04  0.00000E+00 0
  0.39137E+05  0.30000E+04  0.00000E+00 0
 ZONE I=           3 ,J=           3 , F=POINT
  0.39380E+05  0.15000E+04  0.00000E+00 0
  0.40130E+05  0.15000E+04  0.00000E+00 0
  0.40880E+05  0.15000E+04  0.00000E+00 0
  0.39258E+05  0.22500E+04  0.00000E+00 0
  0.40008E+05  0.22500E+04  0.00000E+00 0
  0.40758E+05  0.22500E+04  0.00000E+00 0
  0.39137E+05  0.30000E+04  0.00000E+00 0
  0.39887E+05  0.30000E+04  0.00000E+00 0
  0.40637E+05  0.30000E+04  0.00000E+00 0
 ZONE I=           3 ,J=           3 , F=POINT
  0.40880E+05  0.15000E+04  0.00000E+00 0
  0.41630E+05  0.15000E+04  0.00000E+00 0
  0.42380E+05  0.15000E+04  0.00000E+00 0
  0.40758E+05  0.22500E+04  0.00000E+00 0
  0.41508E+05  0.22500E+04  0.00000E+00 0
  0.42258E+05  0.22500E+04  0.00000E+00 0
  0.40637E+05  0.30000E+04  0.00000E+00 0
  0.41387E+05  0.30000E+04  0.00000E+00 0
  0.42137E+05  0.30000E+04  0.00000E+00 0
 ZONE I=           3 ,J=           3 , F=POINT
  0.42380E+05  0.15000E+04  0.00000E+00 0
  0.43130E+05  0.15000E+04  0.00000E+00 0
  0.43880E+05  0.15000E+04  0.00000E+00 0
  0.42258E+05  0.22500E+04  0.00000E+00 0
  0.43008E+05  0.22500E+04  0.00000E+00 0
  0.43758E+05  0.22500E+04  0.00000E+00 0
  0.42137E+05  0.30000E+04  0.00000E+00 0
  0.42887E+05  0.30000E+04  0.00000E+00 0
  0.43637E+05  0.30000E+04  0.00000E+00 0
 ZONE I=           3 ,J=           3 , F=POINT
  0.43880E+05  0.15000E+04  0.00000E+00 0
  0.44630E+05  0.15000E+04  0.00000E+00 0
  0.45380E+05  0.15000E+04  0.00000E+00 0
  0.43758E+05  0.22500E+04  0.00000E+00 0
  0.44508E+05  0.22500E+04  0.00000E+00 0
  0.45258E+05  0.22500E+04  0.00000E+00 0
  0.43637E+05  0.30000E+04  0.00000E+00 0
  0.44387E+05  0.30000E+04  0.00000E+00 0
  0.45137E+05  0.30000E+04  0.00000E+00 0
 ZONE I=           3 ,J=           3 , F=POINT
  0.45380E+05  0.15000E+04  0.00000E+00 0
  0.46130E+05  0.15000E+04  0.00000E+00 0
  0.46880E+05  0.15000E+04  0.00000E+00 0
  0.45258E+05  0.22500E+04  0.00000E+00 0
  0.46008E+05  0.22500E+04  0.00000E+00 0
  0.46758E+05  0.22500E+04  0.00000E+00 0
  0.45137E+05  0.30000E+04  0.00000E+00 0
  0.45887E+05  0.30000E+04  0.00000E+00 0
  0.46637E+05  0.30000E+04  0.00000E+00 0
 ZONE I=           3 ,J=           3 , F=POINT
  0.46880E+05  0.15000E+04  0.00000E+00 0
  0.47630E+05  0.15000E+04  0.00000E+00 0
  0.48380E+05  0.15000E+04  0.00000E+00 0
  0.46758E+05  0.22500E+04  0.00000E+00 0
  0.47508E+05  0.22500E+04  0.00000E+00 0
  0.48258E+05  0.22500E+04  0.00000E+00 0
  0.46637E+05  0.30000E+04  0.00000E+00 0
  0.47387E+05  0.30000E+04  0.00000E+00 0
  0.48137E+05  0.30000E+04  0.00000E+00 0
 ZONE I=           3 ,J=           3 , F=POINT
  0.48380E+05  0.15000E+04  0.00000E+00 0
  0.49130E+05  0.15000E+04  0.00000E+00 0
  0.49880E+05  0.15000E+04  0.00000E+00 0
  0.48258E+05  0.22500E+04  0.00000E+00 0
  0.49008E+05  0.22500E+04  0.00000E+00 0
  0.49758E+05  0.22500E+04  0.00000E+00 0
  0.48137E+05  0.30000E+04  0.00000E+00 0
  0.48887E+05  0.30000E+04  0.00000E+00 0
  0.49637E+05  0.30000E+04  0.00000E+00 0
 ZONE I=           3 ,J=           3 , F=POINT
  0.49880E+05  0.15000E+04  0.00000E+00 0
  0.50630E+05  0.15000E+04  0.00000E+00 0
  0.51380E+05  0.15000E+04  0.00000E+00 0
  0.49758E+05  0.22500E+04  0.00000E+00 0
  0.50508E+05  0.22500E+04  0.00000E+00 0
  0.51258E+05  0.22500E+04  0.00000E+00 0
  0.49637E+05  0.30000E+04  0.00000E+00 0
  0.50387E+05  0.30000E+04  0.00000E+00 0
  0.51137E+05  0.30000E+04  0.00000E+00 0
 ZONE I=           3 ,J=           3 , F=POINT
  0.51380E+05  0.15000E+04  0.00000E+00 0
  0.52130E+05  0.15000E+04  0.00000E+00 0
  0.52880E+05  0.15000E+04  0.00000E+00 0
  0.51258E+05  0.22500E+04  0.00000E+00 0
  0.52008E+05  0.22500E+04  0.00000E+00 0
  0.52758E+05  0.22500E+04  0.00000E+00 0
  0.51137E+05  0.30000E+04  0.00000E+00 0
  0.51887E+05  0.30000E+04  0.00000E+00 0
  0.52637E+05  0.30000E+04  0.00000E+00 0
 ZONE I=           3 ,J=           3 , F=POINT
  0.52880E+05  0.15000E+04  0.00000E+00 0
  0.53630E+05  0.15000E+04  0.00000E+00 0
  0.54380E+05  0.15000E+04  0.00000E+00 0
  0.52758E+05  0.22500E+04  0.00000E+00 0
  0.53508E+05  0.22500E+04  0.00000E+00 0
  0.54258E+05  0.22500E+04  0.00000E+00 0
  0.52637E+05  0.30000E+04  0.00000E+00 0
  0.53387E+05  0.30000E+04  0.00000E+00 0
  0.54137E+05  0.30000E+04  0.00000E+00 0
 ZONE I=           3 ,J=           3 , F=POINT
  0.54380E+05  0.15000E+04  0.00000E+00 0
  0.55130E+05  0.15000E+04  0.00000E+00 0
  0.55880E+05  0.15000E+04  0.00000E+00 0
  0.54258E+05  0.22500E+04  0.00000E+00 0
  0.55008E+05  0.22500E+04  0.00000E+00 0
  0.55758E+05  0.22500E+04  0.00000E+00 0
  0.54137E+05  0.30000E+04  0.00000E+00 0
  0.54887E+05  0.30000E+04  0.00000E+00 0
  0.55637E+05  0.30000E+04  0.00000E+00 0
 ZONE I=           3 ,J=           3 , F=POINT
  0.55880E+05  0.15000E+04  0.00000E+00 0
  0.56630E+05  0.15000E+04  0.00000E+00 0
  0.57380E+05  0.15000E+04  0.00000E+00 0
  0.55758E+05  0.22500E+04  0.00000E+00 0
  0.56508E+05  0.22500E+04  0.00000E+00 0
  0.57258E+05  0.22500E+04  0.00000E+00 0
  0.55637E+05  0.30000E+04  0.00000E+00 0
  0.56387E+05  0.30000E+04  0.00000E+00 0
  0.57137E+05  0.30000E+04  0.00000E+00 0
 ZONE I=           3 ,J=           3 , F=POINT
  0.57380E+05  0.15000E+04  0.00000E+00 0
  0.58130E+05  0.15000E+04  0.00000E+00 0
  0.58880E+05  0.15000E+04  0.00000E+00 0
  0.57258E+05  0.22500E+04  0.00000E+00 0
  0.58008E+05  0.22500E+04  0.00000E+00 0
  0.58758E+05  0.22500E+04  0.00000E+00 0
  0.57137E+05  0.30000E+04  0.00000E+00 0
  0.57887E+05  0.30000E+04  0.00000E+00 0
  0.58637E+05  0.30000E+04  0.00000E+00 0
 ZONE I=           3 ,J=           3 , F=POINT
  0.58880E+05  0.15000E+04  0.00000E+00 0
  0.59630E+05  0.15000E+04  0.00000E+00 0
  0.60380E+05  0.15000E+04  0.00000E+00 0
  0.58758E+05  0.22500E+04  0.00000E+00 0
  0.59508E+05  0.22500E+04  0.00000E+00 0
  0.60258E+05  0.22500E+04  0.00000E+00 0
  0.58637E+05  0.30000E+04  0.00000E+00 0
  0.59387E+05  0.30000E+04  0.00000E+00 0
  0.60137E+05  0.30000E+04  0.00000E+00 0
 ZONE I=           3 ,J=           3 , F=POINT
  0.60380E+05  0.15000E+04  0.00000E+00 0
  0.61130E+05  0.15000E+04  0.00000E+00 0
  0.61880E+05  0.15000E+04  0.00000E+00 0
  0.60258E+05  0.22500E+04  0.00000E+00 0
  0.61008E+05  0.22500E+04  0.00000E+00 0
  0.61758E+05  0.22500E+04  0.00000E+00 0
  0.60137E+05  0.30000E+04  0.00000E+00 0
  0.60887E+05  0.30000E+04  0.00000E+00 0
  0.61637E+05  0.30000E+04  0.00000E+00 0
 ZONE I=           3 ,J=           3 , F=POINT
  0.61880E+05  0.15000E+04  0.00000E+00 0
  0.62630E+05  0.15000E+04  0.00000E+00 0
  0.63380E+05  0.15000E+04  0.00000E+00 0
  0.61758E+05  0.22500E+04  0.00000E+00 0
  0.62508E+05  0.22500E+04  0.00000E+00 0
  0.63258E+05  0.22500E+04  0.00000E+00 0
  0.61637E+05  0.30000E+04  0.00000E+00 0
  0.62387E+05  0.30000E+04  0.00000E+00 0
  0.63137E+05  0.30000E+04  0.00000E+00 0
 ZONE I=           3 ,J=           3 , F=POINT
  0.63380E+05  0.15000E+04  0.00000E+00 0
  0.64130E+05  0.15000E+04  0.00000E+00 0
  0.64880E+05  0.15000E+04  0.00000E+00 0
  0.63258E+05  0.22500E+04  0.00000E+00 0
  0.64008E+05  0.22500E+04  0.00000E+00 0
  0.64758E+05  0.22500E+04  0.00000E+00 0
  0.63137E+05  0.30000E+04  0.00000E+00 0
  0.63887E+05  0.30000E+04  0.00000E+00 0
  0.64637E+05  0.30000E+04  0.00000E+00 0
 ZONE I=           3 ,J=           3 , F=POINT
  0.64880E+05  0.15000E+04  0.00000E+00 0
  0.65630E+05  0.15000E+04  0.00000E+00 0
  0.66380E+05  0.15000E+04  0.00000E+00 0
  0.64758E+05  0.22500E+04  0.00000E+00 0
  0.65509E+05  0.22500E+04  0.00000E+00 0
  0.66259E+05  0.22500E+04  0.00000E+00 0
  0.64637E+05  0.30000E+04  0.00000E+00 0
  0.65387E+05  0.30000E+04  0.00000E+00 0
  0.66137E+05  0.30000E+04  0.00000E+00 0
 ZONE I=           3 ,J=           3 , F=POINT
  0.66380E+05  0.15000E+04  0.00000E+00 0
  0.67132E+05  0.15002E+04  0.00000E+00 0
  0.67883E+05  0.15003E+04  0.00000E+00 0
  0.66259E+05  0.22500E+04  0.00000E+00 0
  0.67010E+05  0.22502E+04  0.00000E+00 0
  0.67762E+05  0.22503E+04  0.00000E+00 0
  0.66137E+05  0.30000E+04  0.00000E+00 0
  0.66889E+05  0.30002E+04  0.00000E+00 0
  0.67641E+05  0.30004E+04  0.00000E+00 0
 ZONE I=           3 ,J=           3 , F=POINT
  0.67883E+05  0.15003E+04  0.00000E+00 0
  0.68644E+05  0.15012E+04  0.00000E+00 0
  0.69405E+05  0.15022E+04  0.00000E+00 0
  0.67762E+05  0.22503E+04  0.00000E+00 0
  0.68522E+05  0.22515E+04  0.00000E+00 0
  0.69282E+05  0.22526E+04  0.00000E+00 0
  0.67641E+05  0.30004E+04  0.00000E+00 0
  0.68400E+05  0.30017E+04  0.00000E+00 0
  0.69160E+05  0.30030E+04  0.00000E+00 0
 ZONE I=           3 ,J=           3 , F=POINT
  0.69405E+05  0.15022E+04  0.00000E+00 0
  0.70217E+05  0.15075E+04  0.00000E+00 0
  0.71030E+05  0.15128E+04  0.00000E+00 0
  0.69282E+05  0.22526E+04  0.00000E+00 0
  0.70080E+05  0.22588E+04  0.00000E+00 0
  0.70877E+05  0.22651E+04  0.00000E+00 0
  0.69160E+05  0.30030E+04  0.00000E+00 0
  0.69942E+05  0.30101E+04  0.00000E+00 0
  0.70725E+05  0.30173E+04  0.00000E+00 0
 ZONE I=           3 ,J=           3 , F=POINT
  0.71030E+05  0.15128E+04  0.00000E+00 0
  0.72032E+05  0.15324E+04  0.00000E+00 0
  0.73034E+05  0.15519E+04  0.00000E+00 0
  0.70877E+05  0.22651E+04  0.00000E+00 0
  0.71760E+05  0.22923E+04  0.00000E+00 0
  0.72643E+05  0.23196E+04  0.00000E+00 0
  0.70725E+05  0.30173E+04  0.00000E+00 0
  0.71488E+05  0.30523E+04  0.00000E+00 0
  0.72252E+05  0.30872E+04  0.00000E+00 0
 ZONE I=           3 ,J=           3 , F=POINT
  0.73034E+05  0.15519E+04  0.00000E+00 0
  0.73446E+05  0.18750E+04  0.00000E+00 0
  0.73858E+05  0.21982E+04  0.00000E+00 0
  0.72643E+05  0.23196E+04  0.00000E+00 0
  0.73197E+05  0.24984E+04  0.00000E+00 0
  0.73752E+05  0.26772E+04  0.00000E+00 0
  0.72252E+05  0.30872E+04  0.00000E+00 0
  0.72948E+05  0.31217E+04  0.00000E+00 0
  0.73645E+05  0.31561E+04  0.00000E+00 0
 ZONE I=           3 ,J=           3 , F=POINT
 -0.73624E+05  0.31561E+04  0.00000E+00 0
 -0.72908E+05  0.31217E+04  0.00000E+00 0
 -0.72193E+05  0.30872E+04  0.00000E+00 0
 -0.73573E+05  0.38440E+04  0.00000E+00 0
 -0.72844E+05  0.38256E+04  0.00000E+00 0
 -0.72114E+05  0.38072E+04  0.00000E+00 0
 -0.73523E+05  0.45319E+04  0.00000E+00 0
 -0.72779E+05  0.45295E+04  0.00000E+00 0
 -0.72035E+05  0.45272E+04  0.00000E+00 0
 ZONE I=           3 ,J=           3 , F=POINT
 -0.72193E+05  0.30872E+04  0.00000E+00 0
 -0.71408E+05  0.30523E+04  0.00000E+00 0
 -0.70623E+05  0.30173E+04  0.00000E+00 0
 -0.72114E+05  0.38072E+04  0.00000E+00 0
 -0.71345E+05  0.37855E+04  0.00000E+00 0
 -0.70575E+05  0.37638E+04  0.00000E+00 0
 -0.72035E+05  0.45272E+04  0.00000E+00 0
 -0.71282E+05  0.45188E+04  0.00000E+00 0
 -0.70528E+05  0.45104E+04  0.00000E+00 0
 ZONE I=           3 ,J=           3 , F=POINT
 -0.70623E+05  0.30173E+04  0.00000E+00 0
 -0.69828E+05  0.30101E+04  0.00000E+00 0
 -0.69033E+05  0.30030E+04  0.00000E+00 0
 -0.70575E+05  0.37638E+04  0.00000E+00 0
 -0.69799E+05  0.37582E+04  0.00000E+00 0
 -0.69022E+05  0.37525E+04  0.00000E+00 0
 -0.70528E+05  0.45104E+04  0.00000E+00 0
 -0.69770E+05  0.45062E+04  0.00000E+00 0
 -0.69012E+05  0.45021E+04  0.00000E+00 0
 ZONE I=           3 ,J=           3 , F=POINT
 -0.69033E+05  0.30030E+04  0.00000E+00 0
 -0.68269E+05  0.30017E+04  0.00000E+00 0
 -0.67505E+05  0.30004E+04  0.00000E+00 0
 -0.69022E+05  0.37525E+04  0.00000E+00 0
 -0.68263E+05  0.37514E+04  0.00000E+00 0
 -0.67504E+05  0.37504E+04  0.00000E+00 0
 -0.69012E+05  0.45021E+04  0.00000E+00 0
 -0.68257E+05  0.45012E+04  0.00000E+00 0
 -0.67503E+05  0.45003E+04  0.00000E+00 0
 ZONE I=           3 ,J=           3 , F=POINT
 -0.67505E+05  0.30004E+04  0.00000E+00 0
 -0.66753E+05  0.30002E+04  0.00000E+00 0
 -0.66001E+05  0.30000E+04  0.00000E+00 0
 -0.67504E+05  0.37504E+04  0.00000E+00 0
 -0.66752E+05  0.37502E+04  0.00000E+00 0
 -0.66000E+05  0.37500E+04  0.00000E+00 0
 -0.67503E+05  0.45003E+04  0.00000E+00 0
 -0.66751E+05  0.45002E+04  0.00000E+00 0
 -0.66000E+05  0.45000E+04  0.00000E+00 0
 ZONE I=           3 ,J=           3 , F=POINT
 -0.66001E+05  0.30000E+04  0.00000E+00 0
 -0.65250E+05  0.30000E+04  0.00000E+00 0
 -0.64500E+05  0.30000E+04  0.00000E+00 0
 -0.66000E+05  0.37500E+04  0.00000E+00 0
 -0.65250E+05  0.37500E+04  0.00000E+00 0
 -0.64500E+05  0.37500E+04  0.00000E+00 0
 -0.66000E+05  0.45000E+04  0.00000E+00 0
 -0.65250E+05  0.45000E+04  0.00000E+00 0
 -0.64500E+05  0.45000E+04  0.00000E+00 0
 ZONE I=           3 ,J=           3 , F=POINT
 -0.64500E+05  0.30000E+04  0.00000E+00 0
 -0.63750E+05  0.30000E+04  0.00000E+00 0
 -0.63000E+05  0.30000E+04  0.00000E+00 0
 -0.64500E+05  0.37500E+04  0.00000E+00 0
 -0.63750E+05  0.37500E+04  0.00000E+00 0
 -0.63000E+05  0.37500E+04  0.00000E+00 0
 -0.64500E+05  0.45000E+04  0.00000E+00 0
 -0.63750E+05  0.45000E+04  0.00000E+00 0
 -0.63000E+05  0.45000E+04  0.00000E+00 0
 ZONE I=           3 ,J=           3 , F=POINT
 -0.63000E+05  0.30000E+04  0.00000E+00 0
 -0.62250E+05  0.30000E+04  0.00000E+00 0
 -0.61500E+05  0.30000E+04  0.00000E+00 0
 -0.63000E+05  0.37500E+04  0.00000E+00 0
 -0.62250E+05  0.37500E+04  0.00000E+00 0
 -0.61500E+05  0.37500E+04  0.00000E+00 0
 -0.63000E+05  0.45000E+04  0.00000E+00 0
 -0.62250E+05  0.45000E+04  0.00000E+00 0
 -0.61500E+05  0.45000E+04  0.00000E+00 0
 ZONE I=           3 ,J=           3 , F=POINT
 -0.61500E+05  0.30000E+04  0.00000E+00 0
 -0.60750E+05  0.30000E+04  0.00000E+00 0
 -0.60000E+05  0.30000E+04  0.00000E+00 0
 -0.61500E+05  0.37500E+04  0.00000E+00 0
 -0.60750E+05  0.37500E+04  0.00000E+00 0
 -0.60000E+05  0.37500E+04  0.00000E+00 0
 -0.61500E+05  0.45000E+04  0.00000E+00 0
 -0.60750E+05  0.45000E+04  0.00000E+00 0
 -0.60000E+05  0.45000E+04  0.00000E+00 0
 ZONE I=           3 ,J=           3 , F=POINT
 -0.60000E+05  0.30000E+04  0.00000E+00 0
 -0.59250E+05  0.30000E+04  0.00000E+00 0
 -0.58500E+05  0.30000E+04  0.00000E+00 0
 -0.60000E+05  0.37500E+04  0.00000E+00 0
 -0.59250E+05  0.37500E+04  0.00000E+00 0
 -0.58500E+05  0.37500E+04  0.00000E+00 0
 -0.60000E+05  0.45000E+04  0.00000E+00 0
 -0.59250E+05  0.45000E+04  0.00000E+00 0
 -0.58500E+05  0.45000E+04  0.00000E+00 0
 ZONE I=           3 ,J=           3 , F=POINT
 -0.58500E+05  0.30000E+04  0.00000E+00 0
 -0.57750E+05  0.30000E+04  0.00000E+00 0
 -0.57000E+05  0.30000E+04  0.00000E+00 0
 -0.58500E+05  0.37500E+04  0.00000E+00 0
 -0.57750E+05  0.37500E+04  0.00000E+00 0
 -0.57000E+05  0.37500E+04  0.00000E+00 0
 -0.58500E+05  0.45000E+04  0.00000E+00 0
 -0.57750E+05  0.45000E+04  0.00000E+00 0
 -0.57000E+05  0.45000E+04  0.00000E+00 0
 ZONE I=           3 ,J=           3 , F=POINT
 -0.57000E+05  0.30000E+04  0.00000E+00 0
 -0.56250E+05  0.30000E+04  0.00000E+00 0
 -0.55500E+05  0.30000E+04  0.00000E+00 0
 -0.57000E+05  0.37500E+04  0.00000E+00 0
 -0.56250E+05  0.37500E+04  0.00000E+00 0
 -0.55500E+05  0.37500E+04  0.00000E+00 0
 -0.57000E+05  0.45000E+04  0.00000E+00 0
 -0.56250E+05  0.45000E+04  0.00000E+00 0
 -0.55500E+05  0.45000E+04  0.00000E+00 0
 ZONE I=           3 ,J=           3 , F=POINT
 -0.55500E+05  0.30000E+04  0.00000E+00 0
 -0.54750E+05  0.30000E+04  0.00000E+00 0
 -0.54000E+05  0.30000E+04  0.00000E+00 0