  TITLE = "SEM Quad mesh" 
  VARIABLES = "x", "y", "z", "material ID"
 ZONE I=           3 ,J=           3 , F=POINT
  0.14559E+01  0.74455E+01  0.00000E+00 1
  0.18326E+01  0.70527E+01  0.00000E+00 1
  0.22094E+01  0.66598E+01  0.00000E+00 1
  0.16058E+01  0.87772E+01  0.00000E+00 1
  0.22209E+01  0.85507E+01  0.00000E+00 1
  0.28360E+01  0.83241E+01  0.00000E+00 1
  0.17557E+01  0.10109E+02  0.00000E+00 1
  0.26091E+01  0.10049E+02  0.00000E+00 1
  0.34625E+01  0.99884E+01  0.00000E+00 1
 ZONE I=           3 ,J=           3 , F=POINT
  0.22094E+01  0.66598E+01  0.00000E+00 1
  0.30521E+01  0.56660E+01  0.00000E+00 1
  0.38948E+01  0.46722E+01  0.00000E+00 1
  0.28360E+01  0.83241E+01  0.00000E+00 1
  0.37457E+01  0.77258E+01  0.00000E+00 1
  0.46554E+01  0.71274E+01  0.00000E+00 1
  0.34625E+01  0.99884E+01  0.00000E+00 1
  0.44392E+01  0.97855E+01  0.00000E+00 1
  0.54160E+01  0.95826E+01  0.00000E+00 1
 ZONE I=           3 ,J=           3 , F=POINT
  0.38948E+01  0.46722E+01  0.00000E+00 1
  0.56678E+01  0.46773E+01  0.00000E+00 1
  0.74409E+01  0.46824E+01  0.00000E+00 1
  0.46554E+01  0.71274E+01  0.00000E+00 1
  0.61085E+01  0.70809E+01  0.00000E+00 1
  0.75615E+01  0.70344E+01  0.00000E+00 1
  0.54160E+01  0.95826E+01  0.00000E+00 1
  0.65491E+01  0.94845E+01  0.00000E+00 1
  0.76822E+01  0.93864E+01  0.00000E+00 1
 ZONE I=           3 ,J=           3 , F=POINT
  0.17557E+01  0.10109E+02  0.00000E+00 1
  0.26091E+01  0.10049E+02  0.00000E+00 1
  0.34625E+01  0.99884E+01  0.00000E+00 1
  0.18469E+01  0.12149E+02  0.00000E+00 1
  0.27587E+01  0.12117E+02  0.00000E+00 1
  0.36705E+01  0.12085E+02  0.00000E+00 1
  0.19381E+01  0.14189E+02  0.00000E+00 1
  0.29083E+01  0.14185E+02  0.00000E+00 1
  0.38785E+01  0.14182E+02  0.00000E+00 1
 ZONE I=           3 ,J=           3 , F=POINT
  0.19381E+01  0.14189E+02  0.00000E+00 1
  0.29083E+01  0.14185E+02  0.00000E+00 1
  0.38785E+01  0.14182E+02  0.00000E+00 1
  0.19453E+01  0.16408E+02  0.00000E+00 1
  0.29216E+01  0.16399E+02  0.00000E+00 1
  0.38979E+01  0.16391E+02  0.00000E+00 1
  0.19526E+01  0.18626E+02  0.00000E+00 1
  0.29350E+01  0.18613E+02  0.00000E+00 1
  0.39174E+01  0.18601E+02  0.00000E+00 1
 ZONE I=           3 ,J=           3 , F=POINT
  0.34625E+01  0.99884E+01  0.00000E+00 1
  0.44392E+01  0.97855E+01  0.00000E+00 1
  0.54160E+01  0.95826E+01  0.00000E+00 1
  0.36705E+01  0.12085E+02  0.00000E+00 1
  0.46555E+01  0.11965E+02  0.00000E+00 1
  0.56404E+01  0.11845E+02  0.00000E+00 1
  0.38785E+01  0.14182E+02  0.00000E+00 1
  0.48717E+01  0.14145E+02  0.00000E+00 1
  0.58649E+01  0.14108E+02  0.00000E+00 1
 ZONE I=           3 ,J=           3 , F=POINT
  0.54160E+01  0.95826E+01  0.00000E+00 1
  0.65491E+01  0.94845E+01  0.00000E+00 1
  0.76822E+01  0.93864E+01  0.00000E+00 1
  0.56404E+01  0.11845E+02  0.00000E+00 1
  0.67180E+01  0.11783E+02  0.00000E+00 1
  0.77955E+01  0.11721E+02  0.00000E+00 1
  0.58649E+01  0.14108E+02  0.00000E+00 1
  0.68869E+01  0.14082E+02  0.00000E+00 1
  0.79089E+01  0.14056E+02  0.00000E+00 1
 ZONE I=           3 ,J=           3 , F=POINT
  0.38785E+01  0.14182E+02  0.00000E+00 1
  0.48717E+01  0.14145E+02  0.00000E+00 1
  0.58649E+01  0.14108E+02  0.00000E+00 1
  0.38979E+01  0.16391E+02  0.00000E+00 1
  0.48935E+01  0.16377E+02  0.00000E+00 1
  0.58890E+01  0.16362E+02  0.00000E+00 1
  0.39174E+01  0.18601E+02  0.00000E+00 1
  0.49152E+01  0.18608E+02  0.00000E+00 1
  0.59131E+01  0.18616E+02  0.00000E+00 1
 ZONE I=           3 ,J=           3 , F=POINT
  0.58649E+01  0.14108E+02  0.00000E+00 1
  0.68869E+01  0.14082E+02  0.00000E+00 1
  0.79089E+01  0.14056E+02  0.00000E+00 1
  0.58890E+01  0.16362E+02  0.00000E+00 1
  0.69045E+01  0.16350E+02  0.00000E+00 1
  0.79199E+01  0.16339E+02  0.00000E+00 1
  0.59131E+01  0.18616E+02  0.00000E+00 1
  0.69221E+01  0.18619E+02  0.00000E+00 1
  0.79310E+01  0.18623E+02  0.00000E+00 1
 ZONE I=           3 ,J=           3 , F=POINT
  0.74409E+01  0.46824E+01  0.00000E+00 1
  0.86725E+01  0.46832E+01  0.00000E+00 1
  0.99041E+01  0.46840E+01  0.00000E+00 1
  0.75615E+01  0.70344E+01  0.00000E+00 1
  0.87355E+01  0.70309E+01  0.00000E+00 1
  0.99095E+01  0.70274E+01  0.00000E+00 1
  0.76822E+01  0.93864E+01  0.00000E+00 1
  0.87986E+01  0.93786E+01  0.00000E+00 1
  0.99149E+01  0.93709E+01  0.00000E+00 1
 ZONE I=           3 ,J=           3 , F=POINT
  0.99041E+01  0.46840E+01  0.00000E+00 1
  0.10945E+02  0.46853E+01  0.00000E+00 1
  0.11987E+02  0.46866E+01  0.00000E+00 1
  0.99095E+01  0.70274E+01  0.00000E+00 1
  0.10948E+02  0.70284E+01  0.00000E+00 1
  0.11986E+02  0.70294E+01  0.00000E+00 1
  0.99149E+01  0.93709E+01  0.00000E+00 1
  0.10950E+02  0.93715E+01  0.00000E+00 1
  0.11985E+02  0.93721E+01  0.00000E+00 1
 ZONE I=           3 ,J=           3 , F=POINT
  0.11987E+02  0.46866E+01  0.00000E+00 1
  0.12993E+02  0.46870E+01  0.00000E+00 1
  0.13999E+02  0.46873E+01  0.00000E+00 1
  0.11986E+02  0.70294E+01  0.00000E+00 1
  0.12992E+02  0.70297E+01  0.00000E+00 1
  0.13998E+02  0.70300E+01  0.00000E+00 1
  0.11985E+02  0.93721E+01  0.00000E+00 1
  0.12992E+02  0.93724E+01  0.00000E+00 1
  0.13998E+02  0.93727E+01  0.00000E+00 1
 ZONE I=           3 ,J=           3 , F=POINT
  0.13999E+02  0.46873E+01  0.00000E+00 1
  0.14999E+02  0.46873E+01  0.00000E+00 1
  0.16000E+02  0.46873E+01  0.00000E+00 1
  0.13998E+02  0.70300E+01  0.00000E+00 1
  0.14999E+02  0.70300E+01  0.00000E+00 1
  0.15999E+02  0.70301E+01  0.00000E+00 1
  0.13998E+02  0.93727E+01  0.00000E+00 1
  0.14998E+02  0.93728E+01  0.00000E+00 1
  0.15999E+02  0.93728E+01  0.00000E+00 1
 ZONE I=           3 ,J=           3 , F=POINT
  0.76822E+01  0.93864E+01  0.00000E+00 1
  0.87986E+01  0.93786E+01  0.00000E+00 1
  0.99149E+01  0.93709E+01  0.00000E+00 1
  0.77955E+01  0.11721E+02  0.00000E+00 1
  0.88667E+01  0.11714E+02  0.00000E+00 1
  0.99379E+01  0.11706E+02  0.00000E+00 1
  0.79089E+01  0.14056E+02  0.00000E+00 1
  0.89348E+01  0.14049E+02  0.00000E+00 1
  0.99608E+01  0.14042E+02  0.00000E+00 1
 ZONE I=           3 ,J=           3 , F=POINT
  0.99149E+01  0.93709E+01  0.00000E+00 1
  0.10950E+02  0.93715E+01  0.00000E+00 1
  0.11985E+02  0.93721E+01  0.00000E+00 1
  0.99379E+01  0.11706E+02  0.00000E+00 1
  0.10962E+02  0.11707E+02  0.00000E+00 1
  0.11986E+02  0.11707E+02  0.00000E+00 1
  0.99608E+01  0.14042E+02  0.00000E+00 1
  0.10973E+02  0.14042E+02  0.00000E+00 1
  0.11986E+02  0.14042E+02  0.00000E+00 1
 ZONE I=           3 ,J=           3 , F=POINT
  0.79089E+01  0.14056E+02  0.00000E+00 1
  0.89348E+01  0.14049E+02  0.00000E+00 1
  0.99608E+01  0.14042E+02  0.00000E+00 1
  0.79199E+01  0.16339E+02  0.00000E+00 1
  0.89368E+01  0.16336E+02  0.00000E+00 1
  0.99537E+01  0.16333E+02  0.00000E+00 1
  0.79310E+01  0.18623E+02  0.00000E+00 1
  0.89388E+01  0.18623E+02  0.00000E+00 1
  0.99466E+01  0.18623E+02  0.00000E+00 1
 ZONE I=           3 ,J=           3 , F=POINT
  0.99608E+01  0.14042E+02  0.00000E+00 1
  0.10973E+02  0.14042E+02  0.00000E+00 1
  0.11986E+02  0.14042E+02  0.00000E+00 1
  0.99537E+01  0.16333E+02  0.00000E+00 1
  0.10962E+02  0.16333E+02  0.00000E+00 1
  0.11969E+02  0.16333E+02  0.00000E+00 1
  0.99466E+01  0.18623E+02  0.00000E+00 1
  0.10950E+02  0.18624E+02  0.00000E+00 1
  0.11953E+02  0.18624E+02  0.00000E+00 1
 ZONE I=           3 ,J=           3 , F=POINT
  0.11985E+02  0.93721E+01  0.00000E+00 1
  0.12992E+02  0.93724E+01  0.00000E+00 1
  0.13998E+02  0.93727E+01  0.00000E+00 1
  0.11986E+02  0.11707E+02  0.00000E+00 1
  0.12990E+02  0.11707E+02  0.00000E+00 1
  0.13995E+02  0.11707E+02  0.00000E+00 1
  0.11986E+02  0.14042E+02  0.00000E+00 1
  0.12989E+02  0.14042E+02  0.00000E+00 1
  0.13992E+02  0.14042E+02  0.00000E+00 1
 ZONE I=           3 ,J=           3 , F=POINT
  0.13998E+02  0.93727E+01  0.00000E+00 1
  0.14998E+02  0.93728E+01  0.00000E+00 1
  0.15999E+02  0.93728E+01  0.00000E+00 1
  0.13995E+02  0.11707E+02  0.00000E+00 1
  0.14995E+02  0.11707E+02  0.00000E+00 1
  0.15996E+02  0.11707E+02  0.00000E+00 1
  0.13992E+02  0.14042E+02  0.00000E+00 1
  0.14992E+02  0.14042E+02  0.00000E+00 1
  0.15993E+02  0.14042E+02  0.00000E+00 1
 ZONE I=           3 ,J=           3 , F=POINT
  0.11986E+02  0.14042E+02  0.00000E+00 1
  0.12989E+02  0.14042E+02  0.00000E+00 1
  0.13992E+02  0.14042E+02  0.00000E+00 1
  0.11969E+02  0.16333E+02  0.00000E+00 1
  0.12971E+02  0.16333E+02  0.00000E+00 1
  0.13973E+02  0.16333E+02  0.00000E+00 1
  0.11953E+02  0.18624E+02  0.00000E+00 1
  0.12954E+02  0.18624E+02  0.00000E+00 1
  0.13955E+02  0.18624E+02  0.00000E+00 1
 ZONE I=           3 ,J=           3 , F=POINT
  0.13992E+02  0.14042E+02  0.00000E+00 1
  0.14992E+02  0.14042E+02  0.00000E+00 1
  0.15993E+02  0.14042E+02  0.00000E+00 1
  0.13973E+02  0.16333E+02  0.00000E+00 1
  0.14974E+02  0.16333E+02  0.00000E+00 1
  0.15974E+02  0.16333E+02  0.00000E+00 1
  0.13955E+02  0.18624E+02  0.00000E+00 1
  0.14955E+02  0.18624E+02  0.00000E+00 1
  0.15955E+02  0.18624E+02  0.00000E+00 1
 ZONE I=           3 ,J=           3 , F=POINT
  0.19526E+01  0.18626E+02  0.00000E+00 1
  0.29350E+01  0.18613E+02  0.00000E+00 1
  0.39174E+01  0.18601E+02  0.00000E+00 1
  0.18795E+01  0.20695E+02  0.00000E+00 1
  0.28349E+01  0.20693E+02  0.00000E+00 1
  0.37903E+01  0.20691E+02  0.00000E+00 1
  0.18064E+01  0.22764E+02  0.00000E+00 1
  0.27348E+01  0.22773E+02  0.00000E+00 1
  0.36632E+01  0.22782E+02  0.00000E+00 1
 ZONE I=           3 ,J=           3 , F=POINT
  0.18064E+01  0.22764E+02  0.00000E+00 1
  0.27348E+01  0.22773E+02  0.00000E+00 1
  0.36632E+01  0.22782E+02  0.00000E+00 1
  0.16642E+01  0.24148E+02  0.00000E+00 1
  0.24031E+01  0.24457E+02  0.00000E+00 1
  0.31420E+01  0.24765E+02  0.00000E+00 1
  0.15220E+01  0.25533E+02  0.00000E+00 1
  0.20715E+01  0.26140E+02  0.00000E+00 1
  0.26209E+01  0.26748E+02  0.00000E+00 1
 ZONE I=           3 ,J=           3 , F=POINT
  0.39174E+01  0.18601E+02  0.00000E+00 1
  0.49152E+01  0.18608E+02  0.00000E+00 1
  0.59131E+01  0.18616E+02  0.00000E+00 1
  0.37903E+01  0.20691E+02  0.00000E+00 1
  0.47981E+01  0.20723E+02  0.00000E+00 1
  0.58060E+01  0.20754E+02  0.00000E+00 1
  0.36632E+01  0.22782E+02  0.00000E+00 1
  0.46810E+01  0.22837E+02  0.00000E+00 1
  0.56989E+01  0.22893E+02  0.00000E+00 1
 ZONE I=           3 ,J=           3 , F=POINT
  0.59131E+01  0.18616E+02  0.00000E+00 1
  0.69221E+01  0.18619E+02  0.00000E+00 1
  0.79310E+01  0.18623E+02  0.00000E+00 1
  0.58060E+01  0.20754E+02  0.00000E+00 1
  0.68321E+01  0.20762E+02  0.00000E+00 1
  0.78583E+01  0.20769E+02  0.00000E+00 1
  0.56989E+01  0.22893E+02  0.00000E+00 1
  0.67422E+01  0.22904E+02  0.00000E+00 1
  0.77855E+01  0.22916E+02  0.00000E+00 1
 ZONE I=           3 ,J=           3 , F=POINT
  0.36632E+01  0.22782E+02  0.00000E+00 1
  0.46810E+01  0.22837E+02  0.00000E+00 1
  0.56989E+01  0.22893E+02  0.00000E+00 1
  0.31420E+01  0.24765E+02  0.00000E+00 1
  0.43191E+01  0.24776E+02  0.00000E+00 1
  0.54961E+01  0.24788E+02  0.00000E+00 1
  0.26209E+01  0.26748E+02  0.00000E+00 1
  0.39572E+01  0.26715E+02  0.00000E+00 1
  0.52934E+01  0.26683E+02  0.00000E+00 1
 ZONE I=           3 ,J=           3 , F=POINT
  0.56989E+01  0.22893E+02  0.00000E+00 1
  0.67422E+01  0.22904E+02  0.00000E+00 1
  0.77855E+01  0.22916E+02  0.00000E+00 1
  0.54961E+01  0.24788E+02  0.00000E+00 1
  0.65595E+01  0.24796E+02  0.00000E+00 1
  0.76228E+01  0.24805E+02  0.00000E+00 1
  0.52934E+01  0.26683E+02  0.00000E+00 1
  0.63767E+01  0.26688E+02  0.00000E+00 1
  0.74600E+01  0.26694E+02  0.00000E+00 1
 ZONE I=           3 ,J=           3 , F=POINT
  0.79310E+01  0.18623E+02  0.00000E+00 1
  0.89388E+01  0.18623E+02  0.00000E+00 1
  0.99466E+01  0.18623E+02  0.00000E+00 1
  0.78583E+01  0.20769E+02  0.00000E+00 1
  0.88688E+01  0.20771E+02  0.00000E+00 1
  0.98792E+01  0.20773E+02  0.00000E+00 1
  0.77855E+01  0.22916E+02  0.00000E+00 1
  0.87987E+01  0.22919E+02  0.00000E+00 1
  0.98118E+01  0.22922E+02  0.00000E+00 1
 ZONE I=           3 ,J=           3 , F=POINT
  0.99466E+01  0.18623E+02  0.00000E+00 1
  0.10950E+02  0.18624E+02  0.00000E+00 1
  0.11953E+02  0.18624E+02  0.00000E+00 1
  0.98792E+01  0.20773E+02  0.00000E+00 1
  0.10882E+02  0.20773E+02  0.00000E+00 1
  0.11885E+02  0.20774E+02  0.00000E+00 1
  0.98118E+01  0.22922E+02  0.00000E+00 1
  0.10814E+02  0.22923E+02  0.00000E+00 1
  0.11817E+02  0.22923E+02  0.00000E+00 1
 ZONE I=           3 ,J=           3 , F=POINT
  0.77855E+01  0.22916E+02  0.00000E+00 1
  0.87987E+01  0.22919E+02  0.00000E+00 1
  0.98118E+01  0.22922E+02  0.00000E+00 1
  0.76228E+01  0.24805E+02  0.00000E+00 1
  0.86366E+01  0.24808E+02  0.00000E+00 1
  0.96504E+01  0.24811E+02  0.00000E+00 1
  0.74600E+01  0.26694E+02  0.00000E+00 1
  0.84745E+01  0.26697E+02  0.00000E+00 1
  0.94890E+01  0.26699E+02  0.00000E+00 1
 ZONE I=           3 ,J=           3 , F=POINT
  0.98118E+01  0.22922E+02  0.00000E+00 1
  0.10814E+02  0.22923E+02  0.00000E+00 1
  0.11817E+02  0.22923E+02  0.00000E+00 1
  0.96504E+01  0.24811E+02  0.00000E+00 1
  0.10653E+02  0.24811E+02  0.00000E+00 1
  0.11655E+02  0.24812E+02  0.00000E+00 1
  0.94890E+01  0.26699E+02  0.00000E+00 1
  0.10491E+02  0.26700E+02  0.00000E+00 1
  0.11493E+02  0.26700E+02  0.00000E+00 1
 ZONE I=           3 ,J=           3 , F=POINT
  0.11953E+02  0.18624E+02  0.00000E+00 1
  0.12954E+02  0.18624E+02  0.00000E+00 1
  0.13955E+02  0.18624E+02  0.00000E+00 1
  0.11885E+02  0.20774E+02  0.00000E+00 1
  0.12885E+02  0.20774E+02  0.00000E+00 1
  0.13886E+02  0.20774E+02  0.00000E+00 1
  0.11817E+02  0.22923E+02  0.00000E+00 1
  0.12817E+02  0.22923E+02  0.00000E+00 1
  0.13817E+02  0.22924E+02  0.00000E+00 1
 ZONE I=           3 ,J=           3 , F=POINT
  0.13955E+02  0.18624E+02  0.00000E+00 1
  0.14955E+02  0.18624E+02  0.00000E+00 1
  0.15955E+02  0.18624E+02  0.00000E+00 1
  0.13886E+02  0.20774E+02  0.00000E+00 1
  0.14886E+02  0.20774E+02  0.00000E+00 1
  0.15886E+02  0.20774E+02  0.00000E+00 1
  0.13817E+02  0.22924E+02  0.00000E+00 1
  0.14817E+02  0.22924E+02  0.00000E+00 1
  0.15817E+02  0.22924E+02  0.00000E+00 1
 ZONE I=           3 ,J=           3 , F=POINT
  0.11817E+02  0.22923E+02  0.00000E+00 1
  0.12817E+02  0.22923E+02  0.00000E+00 1
  0.13817E+02  0.22924E+02  0.00000E+00 1
  0.11655E+02  0.24812E+02  0.00000E+00 1
  0.12655E+02  0.24812E+02  0.00000E+00 1
  0.13655E+02  0.24812E+02  0.00000E+00 1
  0.11493E+02  0.26700E+02  0.00000E+00 1
  0.12493E+02  0.26700E+02  0.00000E+00 1
  0.13494E+02  0.26701E+02  0.00000E+00 1
 ZONE I=           3 ,J=           3 , F=POINT
  0.13817E+02  0.22924E+02  0.00000E+00 1
  0.14817E+02  0.22924E+02  0.00000E+00 1
  0.15817E+02  0.22924E+02  0.00000E+00 1
  0.13655E+02  0.24812E+02  0.00000E+00 1
  0.14655E+02  0.24812E+02  0.00000E+00 1
  0.15655E+02  0.24812E+02  0.00000E+00 1
  0.13494E+02  0.26701E+02  0.00000E+00 1
  0.14494E+02  0.26701E+02  0.00000E+00 1
  0.15494E+02  0.26701E+02  0.00000E+00 1
 ZONE I=           3 ,J=           3 , F=POINT
  0.16000E+02  0.46873E+01  0.00000E+00 1
  0.17000E+02  0.46873E+01  0.00000E+00 1
  0.18000E+02  0.46873E+01  0.00000E+00 1
  0.15999E+02  0.70301E+01  0.00000E+00 1
  0.17000E+02  0.70301E+01  0.00000E+00 1
  0.18000E+02  0.70301E+01  0.00000E+00 1
  0.15999E+02  0.93728E+01  0.00000E+00 1
  0.16999E+02  0.93728E+01  0.00000E+00 1
  0.17999E+02  0.93728E+01  0.00000E+00 1
 ZONE I=           3 ,J=           3 , F=POINT
  0.18000E+02  0.46873E+01  0.00000E+00 1
  0.19000E+02  0.46873E+01  0.00000E+00 1
  0.20000E+02  0.46873E+01  0.00000E+00 1
  0.18000E+02  0.70301E+01  0.00000E+00 1
  0.19000E+02  0.70301E+01  0.00000E+00 1
  0.20000E+02  0.70301E+01  0.00000E+00 1
  0.17999E+02  0.93728E+01  0.00000E+00 1
  0.18999E+02  0.93728E+01  0.00000E+00 1
  0.19999E+02  0.93728E+01  0.00000E+00 1
 ZONE I=           3 ,J=           3 , F=POINT
  0.20000E+02  0.46873E+01  0.00000E+00 1
  0.21000E+02  0.46873E+01  0.00000E+00 1
  0.22000E+02  0.46873E+01  0.00000E+00 1
  0.20000E+02  0.70301E+01  0.00000E+00 1
  0.21000E+02  0.70301E+01  0.00000E+00 1
  0.22000E+02  0.70301E+01  0.00000E+00 1
  0.19999E+02  0.93728E+01  0.00000E+00 1
  0.20999E+02  0.93728E+01  0.00000E+00 1
  0.21999E+02  0.93728E+01  0.00000E+00 1
 ZONE I=           3 ,J=           3 , F=POINT
  0.22000E+02  0.46873E+01  0.00000E+00 1
  0.23000E+02  0.46873E+01  0.00000E+00 1
  0.24000E+02  0.46873E+01  0.00000E+00 1
  0.22000E+02  0.70301E+01  0.00000E+00 1
  0.23000E+02  0.70301E+01  0.00000E+00 1
  0.24000E+02  0.70301E+01  0.00000E+00 1
  0.21999E+02  0.93728E+01  0.00000E+00 1
  0.22999E+02  0.93728E+01  0.00000E+00 1
  0.23999E+02  0.93728E+01  0.00000E+00 1
 ZONE I=           3 ,J=           3 , F=POINT
  0.15999E+02  0.93728E+01  0.00000E+00 1
  0.16999E+02  0.93728E+01  0.00000E+00 1
  0.17999E+02  0.93728E+01  0.00000E+00 1
  0.15996E+02  0.11707E+02  0.00000E+00 1
  0.16996E+02  0.11707E+02  0.00000E+00 1
  0.17996E+02  0.11707E+02  0.00000E+00 1
  0.15993E+02  0.14042E+02  0.00000E+00 1
  0.16993E+02  0.14042E+02  0.00000E+00 1
  0.17993E+02  0.14042E+02  0.00000E+00 1
 ZONE I=           3 ,J=           3 , F=POINT
  0.17999E+02  0.93728E+01  0.00000E+00 1
  0.18999E+02  0.93728E+01  0.00000E+00 1
  0.19999E+02  0.93728E+01  0.00000E+00 1
  0.17996E+02  0.11707E+02  0.00000E+00 1
  0.18996E+02  0.11707E+02  0.00000E+00 1
  0.19996E+02  0.11707E+02  0.00000E+00 1
  0.17993E+02  0.14042E+02  0.00000E+00 1
  0.18993E+02  0.14042E+02  0.00000E+00 1
  0.19993E+02  0.14042E+02  0.00000E+00 1
 ZONE I=           3 ,J=           3 , F=POINT
  0.15993E+02  0.14042E+02  0.00000E+00 1
  0.16993E+02  0.14042E+02  0.00000E+00 1
  0.17993E+02  0.14042E+02  0.00000E+00 1
  0.15974E+02  0.16333E+02  0.00000E+00 1
  0.16974E+02  0.16333E+02  0.00000E+00 1
  0.17974E+02  0.16333E+02  0.00000E+00 1
  0.15955E+02  0.18624E+02  0.00000E+00 1
  0.16955E+02  0.18624E+02  0.00000E+00 1
  0.17955E+02  0.18624E+02  0.00000E+00 1
 ZONE I=           3 ,J=           3 , F=POINT
  0.17993E+02  0.14042E+02  0.00000E+00 1
  0.18993E+02  0.14042E+02  0.00000E+00 1
  0.19993E+02  0.14042E+02  0.00000E+00 1
  0.17974E+02  0.16333E+02  0.00000E+00 1
  0.18974E+02  0.16333E+02  0.00000E+00 1
  0.19974E+02  0.16333E+02  0.00000E+00 1
  0.17955E+02  0.18624E+02  0.00000E+00 1
  0.18955E+02  0.18624E+02  0.00000E+00 1
  0.19955E+02  0.18624E+02  0.00000E+00 1
 ZONE I=           3 ,J=           3 , F=POINT
  0.19999E+02  0.93728E+01  0.00000E+00 1
  0.20999E+02  0.93728E+01  0.00000E+00 1
  0.21999E+02  0.93728E+01  0.00000E+00 1
  0.19996E+02  0.11707E+02  0.00000E+00 1
  0.20996E+02  0.11707E+02  0.00000E+00 1
  0.21996E+02  0.11707E+02  0.00000E+00 1
  0.19993E+02  0.14042E+02  0.00000E+00 1
  0.20993E+02  0.14042E+02  0.00000E+00 1
  0.21993E+02  0.14042E+02  0.00000E+00 1
 ZONE I=           3 ,J=           3 , F=POINT
  0.21999E+02  0.93728E+01  0.00000E+00 1
  0.22999E+02  0.93728E+01  0.00000E+00 1
  0.23999E+02  0.93728E+01  0.00000E+00 1
  0.21996E+02  0.11707E+02  0.00000E+00 1
  0.22996E+02  0.11707E+02  0.00000E+00 1
  0.23996E+02  0.11707E+02  0.00000E+00 1
  0.21993E+02  0.14042E+02  0.00000E+00 1
  0.22993E+02  0.14042E+02  0.00000E+00 1
  0.23993E+02  0.14042E+02  0.00000E+00 1
 ZONE I=           3 ,J=           3 , F=POINT
  0.19993E+02  0.14042E+02  0.00000E+00 1
  0.20993E+02  0.14042E+02  0.00000E+00 1
  0.21993E+02  0.14042E+02  0.00000E+00 1
  0.19974E+02  0.16333E+02  0.00000E+00 1
  0.20974E+02  0.16333E+02  0.00000E+00 1
  0.21974E+02  0.16333E+02  0.00000E+00 1
  0.19955E+02  0.18624E+02  0.00000E+00 1
  0.20955E+02  0.18624E+02  0.00000E+00 1
  0.21955E+02  0.18624E+02  0.00000E+00 1
 ZONE I=           3 ,J=           3 , F=POINT
  0.21993E+02  0.14042E+02  0.00000E+00 1
  0.22993E+02  0.14042E+02  0.00000E+00 1
  0.23993E+02  0.14042E+02  0.00000E+00 1
  0.21974E+02  0.16333E+02  0.00000E+00 1
  0.22974E+02  0.16333E+02  0.00000E+00 1
  0.23974E+02  0.16333E+02  0.00000E+00 1
  0.21955E+02  0.18624E+02  0.00000E+00 1
  0.22955E+02  0.18624E+02  0.00000E+00 1
  0.23955E+02  0.18624E+02  0.00000E+00 1
 ZONE I=           3 ,J=           3 , F=POINT
  0.24000E+02  0.46873E+01  0.00000E+00 1
  0.25000E+02  0.46873E+01  0.00000E+00 1
  0.26000E+02  0.46873E+01  0.00000E+00 1
  0.24000E+02  0.70301E+01  0.00000E+00 1
  0.25000E+02  0.70301E+01  0.00000E+00 1
  0.26000E+02  0.70301E+01  0.00000E+00 1
  0.23999E+02  0.93728E+01  0.00000E+00 1
  0.24999E+02  0.93728E+01  0.00000E+00 1
  0.25999E+02  0.93728E+01  0.00000E+00 1
 ZONE I=           3 ,J=           3 , F=POINT
  0.26000E+02  0.46873E+01  0.00000E+00 1
  0.27000E+02  0.46873E+01  0.00000E+00 1
  0.28000E+02  0.46873E+01  0.00000E+00 1
  0.26000E+02  0.70301E+01  0.00000E+00 1
  0.27000E+02  0.70301E+01  0.00000E+00 1
  0.28000E+02  0.70301E+01  0.00000E+00 1
  0.25999E+02  0.93728E+01  0.00000E+00 1
  0.26999E+02  0.93728E+01  0.00000E+00 1
  0.27999E+02  0.93728E+01  0.00000E+00 1
 ZONE I=           3 ,J=           3 , F=POINT
  0.28000E+02  0.46873E+01  0.00000E+00 1
  0.29000E+02  0.46873E+01  0.00000E+00 1
  0.30000E+02  0.46873E+01  0.00000E+00 1
  0.28000E+02  0.70301E+01  0.00000E+00 1
  0.29000E+02  0.70301E+01  0.00000E+00 1
  0.30000E+02  0.70301E+01  0.00000E+00 1
  0.27999E+02  0.93728E+01  0.00000E+00 1
  0.28999E+02  0.93728E+01  0.00000E+00 1
  0.29999E+02  0.93728E+01  0.00000E+00 1
 ZONE I=           3 ,J=           3 , F=POINT
  0.30000E+02  0.46873E+01  0.00000E+00 1
  0.31000E+02  0.46873E+01  0.00000E+00 1
  0.32000E+02  0.46873E+01  0.00000E+00 1
  0.30000E+02  0.70301E+01  0.00000E+00 1
  0.31000E+02  0.70301E+01  0.00000E+00 1
  0.32000E+02  0.70301E+01  0.00000E+00 1
  0.29999E+02  0.93728E+01  0.00000E+00 1
  0.30999E+02  0.93728E+01  0.00000E+00 1
  0.31999E+02  0.93728E+01  0.00000E+00 1
 ZONE I=           3 ,J=           3 , F=POINT
  0.23999E+02  0.93728E+01  0.00000E+00 1
  0.24999E+02  0.93728E+01  0.00000E+00 1
  0.25999E+02  0.93728E+01  0.00000E+00 1
  0.23996E+02  0.11707E+02  0.00000E+00 1
  0.24996E+02  0.11707E+02  0.00000E+00 1
  0.25996E+02  0.11707E+02  0.00000E+00 1
  0.23993E+02  0.14042E+02  0.00000E+00 1
  0.24993E+02  0.14042E+02  0.00000E+00 1
  0.25993E+02  0.14042E+02  0.00000E+00 1
 ZONE I=           3 ,J=           3 , F=POINT
  0.25999E+02  0.93728E+01  0.00000E+00 1
  0.26999E+02  0.93728E+01  0.00000E+00 1
  0.27999E+02  0.93728E+01  0.00000E+00 1
  0.25996E+02  0.11707E+02  0.00000E+00 1
  0.26996E+02  0.11707E+02  0.00000E+00 1
  0.27996E+02  0.11707E+02  0.00000E+00 1
  0.25993E+02  0.14042E+02  0.00000E+00 1
  0.26993E+02  0.14042E+02  0.00000E+00 1
  0.27993E+02  0.14042E+02  0.00000E+00 1
 ZONE I=           3 ,J=           3 , F=POINT
  0.23993E+02  0.14042E+02  0.00000E+00 1
  0.24993E+02  0.14042E+02  0.00000E+00 1
  0.25993E+02  0.14042E+02  0.00000E+00 1
  0.23974E+02  0.16333E+02  0.00000E+00 1
  0.24974E+02  0.16333E+02  0.00000E+00 1
  0.25974E+02  0.16333E+02  0.00000E+00 1
  0.23955E+02  0.18624E+02  0.00000E+00 1
  0.24955E+02  0.18624E+02  0.00000E+00 1
  0.25955E+02  0.18624E+02  0.00000E+00 1
 ZONE I=           3 ,J=           3 , F=POINT
  0.25993E+02  0.14042E+02  0.00000E+00 1
  0.26993E+02  0.14042E+02  0.00000E+00 1
  0.27993E+02  0.14042E+02  0.00000E+00 1
  0.25974E+02  0.16333E+02  0.00000E+00 1
  0.26974E+02  0.16333E+02  0.00000E+00 1
  0.27974E+02  0.16333E+02  0.00000E+00 1
  0.25955E+02  0.18624E+02  0.00000E+00 1
  0.26955E+02  0.18624E+02  0.00000E+00 1
  0.27955E+02  0.18624E+02  0.00000E+00 1
 ZONE I=           3 ,J=           3 , F=POINT
  0.27999E+02  0.93728E+01  0.00000E+00 1
  0.28999E+02  0.93728E+01  0.00000E+00 1
  0.29999E+02  0.93728E+01  0.00000E+00 1
  0.27996E+02  0.11707E+02  0.00000E+00 1
  0.28996E+02  0.11707E+02  0.00000E+00 1
  0.29996E+02  0.11707E+02  0.00000E+00 1
  0.27993E+02  0.14042E+02  0.00000E+00 1
  0.28993E+02  0.14042E+02  0.00000E+00 1
  0.29993E+02  0.14042E+02  0.00000E+00 1
 ZONE I=           3 ,J=           3 , F=POINT
  0.29999E+02  0.93728E+01  0.00000E+00 1
  0.30999E+02  0.93728E+01  0.00000E+00 1
  0.31999E+02  0.93728E+01  0.00000E+00 1
  0.29996E+02  0.11707E+02  0.00000E+00 1
  0.30996E+02  0.11707E+02  0.00000E+00 1
  0.31996E+02  0.11707E+02  0.00000E+00 1
  0.29993E+02  0.14042E+02  0.00000E+00 1
  0.30993E+02  0.14042E+02  0.00000E+00 1
  0.31993E+02  0.14042E+02  0.00000E+00 1
 ZONE I=           3 ,J=           3 , F=POINT
  0.27993E+02  0.14042E+02  0.00000E+00 1
  0.28993E+02  0.14042E+02  0.00000E+00 1
  0.29993E+02  0.14042E+02  0.00000E+00 1
  0.27974E+02  0.16333E+02  0.00000E+00 1
  0.28974E+02  0.16333E+02  0.00000E+00 1
  0.29974E+02  0.16333E+02  0.00000E+00 1
  0.27955E+02  0.18624E+02  0.00000E+00 1
  0.28955E+02  0.18624E+02  0.00000E+00 1
  0.29955E+02  0.18624E+02  0.00000E+00 1
 ZONE I=           3 ,J=           3 , F=POINT
  0.29993E+02  0.14042E+02  0.00000E+00 1
  0.30993E+02  0.14042E+02  0.00000E+00 1
  0.31993E+02  0.14042E+02  0.00000E+00 1
  0.29974E+02  0.16333E+02  0.00000E+00 1
  0.30974E+02  0.16333E+02  0.00000E+00 1
  0.31974E+02  0.16333E+02  0.00000E+00 1
  0.29955E+02  0.18624E+02  0.00000E+00 1
  0.30955E+02  0.18624E+02  0.00000E+00 1
  0.31955E+02  0.18624E+02  0.00000E+00 1
 ZONE I=           3 ,J=           3 , F=POINT
  0.15955E+02  0.18624E+02  0.00000E+00 1
  0.16955E+02  0.18624E+02  0.00000E+00 1
  0.17955E+02  0.18624E+02  0.00000E+00 1
  0.15886E+02  0.20774E+02  0.00000E+00 1
  0.16886E+02  0.20774E+02  0.00000E+00 1
  0.17886E+02  0.20774E+02  0.00000E+00 1
  0.15817E+02  0.22924E+02  0.00000E+00 1
  0.16817E+02  0.22924E+02  0.00000E+00 1
  0.17817E+02  0.22924E+02  0.00000E+00 1
 ZONE I=           3 ,J=           3 , F=POINT
  0.17955E+02  0.18624E+02  0.00000E+00 1
  0.18955E+02  0.18624E+02  0.00000E+00 1
  0.19955E+02  0.18624E+02  0.00000E+00 1
  0.17886E+02  0.20774E+02  0.00000E+00 1
  0.18886E+02  0.20774E+02  0.00000E+00 1
  0.19886E+02  0.20774E+02  0.00000E+00 1
  0.17817E+02  0.22924E+02  0.00000E+00 1
  0.18817E+02  0.22924E+02  0.00000E+00 1
  0.19817E+02  0.22924E+02  0.00000E+00 1
 ZONE I=           3 ,J=           3 , F=POINT
  0.15817E+02  0.22924E+02  0.00000E+00 1
  0.16817E+02  0.22924E+02  0.00000E+00 1
  0.17817E+02  0.22924E+02  0.00000E+00 1
  0.15655E+02  0.24812E+02  0.00000E+00 1
  0.16655E+02  0.24812E+02  0.00000E+00 1
  0.17655E+02  0.24812E+02  0.00000E+00 1
  0.15494E+02  0.26701E+02  0.00000E+00 1
  0.16494E+02  0.26701E+02  0.00000E+00 1
  0.17494E+02  0.26701E+02  0.00000E+00 1
 ZONE I=           3 ,J=           3 , F=POINT
  0.17817E+02  0.22924E+02  0.00000E+00 1
  0.18817E+02  0.22924E+02  0.00000E+00 1
  0.19817E+02  0.22924E+02  0.00000E+00 1
  0.17655E+02  0.24812E+02  0.00000E+00 1
  0.18655E+02  0.24812E+02  0.00000E+00 1
  0.19655E+02  0.24812E+02  0.00000E+00 1
  0.17494E+02  0.26701E+02  0.00000E+00 1
  0.18494E+02  0.26701E+02  0.00000E+00 1
  0.19494E+02  0.26701E+02  0.00000E+00 1
 ZONE I=           3 ,J=           3 , F=POINT
  0.19955E+02  0.18624E+02  0.00000E+00 1
  0.20955E+02  0.18624E+02  0.00000E+00 1
  0.21955E+02  0.18624E+02  0.00000E+00 1
  0.19886E+02  0.20774E+02  0.00000E+00 1
  0.20886E+02  0.20774E+02  0.00000E+00 1
  0.21886E+02  0.20774E+02  0.00000E+00 1
  0.19817E+02  0.22924E+02  0.00000E+00 1
  0.20817E+02  0.22924E+02  0.00000E+00 1
  0.21817E+02  0.22924E+02  0.00000E+00 1
 ZONE I=           3 ,J=           3 , F=POINT
  0.21955E+02  0.18624E+02  0.00000E+00 1
  0.22955E+02  0.18624E+02  0.00000E+00 1
  0.23955E+02  0.18624E+02  0.00000E+00 1
  0.21886E+02  0.20774E+02  0.00000E+00 1
  0.22886E+02  0.20774E+02  0.00000E+00 1
  0.23886E+02  0.20774E+02  0.00000E+00 1
  0.21817E+02  0.22924E+02  0.00000E+00 1
  0.22817E+02  0.22924E+02  0.00000E+00 1
  0.23817E+02  0.22924E+02  0.00000E+00 1
 ZONE I=           3 ,J=           3 , F=POINT
  0.19817E+02  0.22924E+02  0.00000E+00 1
  0.20817E+02  0.22924E+02  0.00000E+00 1
  0.21817E+02  0.22924E+02  0.00000E+00 1
  0.19655E+02  0.24812E+02  0.00000E+00 1
  0.20655E+02  0.24812E+02  0.00000E+00 1
  0.21655E+02  0.24812E+02  0.00000E+00 1
  0.19494E+02  0.26701E+02  0.00000E+00 1
  0.20494E+02  0.26701E+02  0.00000E+00 1
  0.21494E+02  0.26701E+02  0.00000E+00 1
 ZONE I=           3 ,J=           3 , F=POINT
  0.21817E+02  0.22924E+02  0.00000E+00 1
  0.22817E+02  0.22924E+02  0.00000E+00 1
  0.23817E+02  0.22924E+02  0.00000E+00 1
  0.21655E+02  0.24812E+02  0.00000E+00 1
  0.22655E+02  0.24812E+02  0.00000E+00 1
  0.23655E+02  0.24812E+02  0.00000E+00 1
  0.21494E+02  0.26701E+02  0.00000E+00 1
  0.22494E+02  0.26701E+02  0.00000E+00 1
  0.23494E+02  0.26701E+02  0.00000E+00 1
 ZONE I=           3 ,J=           3 , F=POINT
  0.23955E+02  0.18624E+02  0.00000E+00 1
  0.24955E+02  0.18624E+02  0.00000E+00 1
  0.25955E+02  0.18624E+02  0.00000E+00 1
  0.23886E+02  0.20774E+02  0.00000E+00 1
  0.24886E+02  0.20774E+02  0.00000E+00 1
  0.25886E+02  0.20774E+02  0.00000E+00 1
  0.23817E+02  0.22924E+02  0.00000E+00 1
  0.24817E+02  0.22924E+02  0.00000E+00 1
  0.25817E+02  0.22924E+02  0.00000E+00 1
 ZONE I=           3 ,J=           3 , F=POINT
  0.25955E+02  0.18624E+02  0.00000E+00 1
  0.26955E+02  0.18624E+02  0.00000E+00 1
  0.27955E+02  0.18624E+02  0.00000E+00 1
  0.25886E+02  0.20774E+02  0.00000E+00 1
  0.26886E+02  0.20774E+02  0.00000E+00 1
  0.27886E+02  0.20774E+02  0.00000E+00 1
  0.25817E+02  0.22924E+02  0.00000E+00 1
  0.26817E+02  0.22924E+02  0.00000E+00 1
  0.27817E+02  0.22924E+02  0.00000E+00 1
 ZONE I=           3 ,J=           3 , F=POINT
  0.23817E+02  0.22924E+02  0.00000E+00 1
  0.24817E+02  0.22924E+02  0.00000E+00 1
  0.25817E+02  0.22924E+02  0.00000E+00 1
  0.23655E+02  0.24812E+02  0.00000E+00 1
  0.24655E+02  0.24812E+02  0.00000E+00 1
  0.25655E+02  0.24812E+02  0.00000E+00 1
  0.23494E+02  0.26701E+02  0.00000E+00 1
  0.24494E+02  0.26701E+02  0.00000E+00 1
  0.25494E+02  0.26701E+02  0.00000E+00 1
 ZONE I=           3 ,J=           3 , F=POINT
  0.25817E+02  0.22924E+02  0.00000E+00 1
  0.26817E+02  0.22924E+02  0.00000E+00 1
  0.27817E+02  0.22924E+02  0.00000E+00 1