  TITLE = "SEM Quad mesh" 
  VARIABLES = "x", "y", "z", "material ID"
 ZONE I=           3 ,J=           3 , F=POINT
  0.63209E+01  0.47404E+01  0.00000E+00 1
  0.94505E+01  0.47361E+01  0.00000E+00 1
  0.12580E+02  0.47318E+01  0.00000E+00 1
  0.63155E+01  0.70862E+01  0.00000E+00 1
  0.94444E+01  0.70813E+01  0.00000E+00 1
  0.12573E+02  0.70763E+01  0.00000E+00 1
  0.63102E+01  0.94321E+01  0.00000E+00 1
  0.94384E+01  0.94264E+01  0.00000E+00 1
  0.12567E+02  0.94207E+01  0.00000E+00 1
 ZONE I=           3 ,J=           3 , F=POINT
  0.12580E+02  0.47318E+01  0.00000E+00 1
  0.15686E+02  0.47205E+01  0.00000E+00 1
  0.18791E+02  0.47092E+01  0.00000E+00 1
  0.12573E+02  0.70763E+01  0.00000E+00 1
  0.15681E+02  0.70646E+01  0.00000E+00 1
  0.18789E+02  0.70529E+01  0.00000E+00 1
  0.12567E+02  0.94207E+01  0.00000E+00 1
  0.15676E+02  0.94087E+01  0.00000E+00 1
  0.18786E+02  0.93966E+01  0.00000E+00 1
 ZONE I=           3 ,J=           3 , F=POINT
  0.18791E+02  0.47092E+01  0.00000E+00 1
  0.21901E+02  0.47015E+01  0.00000E+00 1
  0.25011E+02  0.46938E+01  0.00000E+00 1
  0.18789E+02  0.70529E+01  0.00000E+00 1
  0.21899E+02  0.70449E+01  0.00000E+00 1
  0.25010E+02  0.70369E+01  0.00000E+00 1
  0.18786E+02  0.93966E+01  0.00000E+00 1
  0.21898E+02  0.93883E+01  0.00000E+00 1
  0.25010E+02  0.93800E+01  0.00000E+00 1
 ZONE I=           3 ,J=           3 , F=POINT
  0.63102E+01  0.94321E+01  0.00000E+00 1
  0.94384E+01  0.94264E+01  0.00000E+00 1
  0.12567E+02  0.94207E+01  0.00000E+00 1
  0.62951E+01  0.11751E+02  0.00000E+00 1
  0.94215E+01  0.11746E+02  0.00000E+00 1
  0.12548E+02  0.11740E+02  0.00000E+00 1
  0.62800E+01  0.14071E+02  0.00000E+00 1
  0.94046E+01  0.14065E+02  0.00000E+00 1
  0.12529E+02  0.14060E+02  0.00000E+00 1
 ZONE I=           3 ,J=           3 , F=POINT
  0.62800E+01  0.14071E+02  0.00000E+00 1
  0.94046E+01  0.14065E+02  0.00000E+00 1
  0.12529E+02  0.14060E+02  0.00000E+00 1
  0.62591E+01  0.16349E+02  0.00000E+00 1
  0.93750E+01  0.16339E+02  0.00000E+00 1
  0.12491E+02  0.16329E+02  0.00000E+00 1
  0.62383E+01  0.18628E+02  0.00000E+00 1
  0.93454E+01  0.18614E+02  0.00000E+00 1
  0.12453E+02  0.18599E+02  0.00000E+00 1
 ZONE I=           3 ,J=           3 , F=POINT
  0.12567E+02  0.94207E+01  0.00000E+00 1
  0.15676E+02  0.94087E+01  0.00000E+00 1
  0.18786E+02  0.93966E+01  0.00000E+00 1
  0.12548E+02  0.11740E+02  0.00000E+00 1
  0.15660E+02  0.11732E+02  0.00000E+00 1
  0.18771E+02  0.11724E+02  0.00000E+00 1
  0.12529E+02  0.14060E+02  0.00000E+00 1
  0.15643E+02  0.14055E+02  0.00000E+00 1
  0.18757E+02  0.14050E+02  0.00000E+00 1
 ZONE I=           3 ,J=           3 , F=POINT
  0.18786E+02  0.93966E+01  0.00000E+00 1
  0.21898E+02  0.93883E+01  0.00000E+00 1
  0.25010E+02  0.93800E+01  0.00000E+00 1
  0.18771E+02  0.11724E+02  0.00000E+00 1
  0.21885E+02  0.11718E+02  0.00000E+00 1
  0.24999E+02  0.11712E+02  0.00000E+00 1
  0.18757E+02  0.14050E+02  0.00000E+00 1
  0.21872E+02  0.14048E+02  0.00000E+00 1
  0.24988E+02  0.14045E+02  0.00000E+00 1
 ZONE I=           3 ,J=           3 , F=POINT
  0.12529E+02  0.14060E+02  0.00000E+00 1
  0.15643E+02  0.14055E+02  0.00000E+00 1
  0.18757E+02  0.14050E+02  0.00000E+00 1
  0.12491E+02  0.16329E+02  0.00000E+00 1
  0.15599E+02  0.16330E+02  0.00000E+00 1
  0.18707E+02  0.16330E+02  0.00000E+00 1
  0.12453E+02  0.18599E+02  0.00000E+00 1
  0.15555E+02  0.18605E+02  0.00000E+00 1
  0.18657E+02  0.18611E+02  0.00000E+00 1
 ZONE I=           3 ,J=           3 , F=POINT
  0.18757E+02  0.14050E+02  0.00000E+00 1
  0.21872E+02  0.14048E+02  0.00000E+00 1
  0.24988E+02  0.14045E+02  0.00000E+00 1
  0.18707E+02  0.16330E+02  0.00000E+00 1
  0.21819E+02  0.16331E+02  0.00000E+00 1
  0.24932E+02  0.16332E+02  0.00000E+00 1
  0.18657E+02  0.18611E+02  0.00000E+00 1
  0.21766E+02  0.18615E+02  0.00000E+00 1
  0.24876E+02  0.18620E+02  0.00000E+00 1
 ZONE I=           3 ,J=           3 , F=POINT
  0.25011E+02  0.46938E+01  0.00000E+00 1
  0.28131E+02  0.46912E+01  0.00000E+00 1
  0.31252E+02  0.46886E+01  0.00000E+00 1
  0.25010E+02  0.70369E+01  0.00000E+00 1
  0.28131E+02  0.70342E+01  0.00000E+00 1
  0.31251E+02  0.70314E+01  0.00000E+00 1
  0.25010E+02  0.93800E+01  0.00000E+00 1
  0.28130E+02  0.93771E+01  0.00000E+00 1
  0.31250E+02  0.93742E+01  0.00000E+00 1
 ZONE I=           3 ,J=           3 , F=POINT
  0.31252E+02  0.46886E+01  0.00000E+00 1
  0.34376E+02  0.46881E+01  0.00000E+00 1
  0.37500E+02  0.46876E+01  0.00000E+00 1
  0.31251E+02  0.70314E+01  0.00000E+00 1
  0.34375E+02  0.70309E+01  0.00000E+00 1
  0.37499E+02  0.70303E+01  0.00000E+00 1
  0.31250E+02  0.93742E+01  0.00000E+00 1
  0.34374E+02  0.93737E+01  0.00000E+00 1
  0.37498E+02  0.93731E+01  0.00000E+00 1
 ZONE I=           3 ,J=           3 , F=POINT
  0.37500E+02  0.46876E+01  0.00000E+00 1
  0.40625E+02  0.46875E+01  0.00000E+00 1
  0.43750E+02  0.46875E+01  0.00000E+00 1
  0.37499E+02  0.70303E+01  0.00000E+00 1
  0.40624E+02  0.70303E+01  0.00000E+00 1
  0.43749E+02  0.70302E+01  0.00000E+00 1
  0.37498E+02  0.93731E+01  0.00000E+00 1
  0.40623E+02  0.93730E+01  0.00000E+00 1
  0.43748E+02  0.93729E+01  0.00000E+00 1
 ZONE I=           3 ,J=           3 , F=POINT
  0.43750E+02  0.46875E+01  0.00000E+00 1
  0.46875E+02  0.46875E+01  0.00000E+00 1
  0.50000E+02  0.46875E+01  0.00000E+00 1
  0.43749E+02  0.70302E+01  0.00000E+00 1
  0.46874E+02  0.70302E+01  0.00000E+00 1
  0.49999E+02  0.70302E+01  0.00000E+00 1
  0.43748E+02  0.93729E+01  0.00000E+00 1
  0.46873E+02  0.93729E+01  0.00000E+00 1
  0.49998E+02  0.93729E+01  0.00000E+00 1
 ZONE I=           3 ,J=           3 , F=POINT
  0.25010E+02  0.93800E+01  0.00000E+00 1
  0.28130E+02  0.93771E+01  0.00000E+00 1
  0.31250E+02  0.93742E+01  0.00000E+00 1
  0.24999E+02  0.11712E+02  0.00000E+00 1
  0.28119E+02  0.11710E+02  0.00000E+00 1
  0.31240E+02  0.11708E+02  0.00000E+00 1
  0.24988E+02  0.14045E+02  0.00000E+00 1
  0.28109E+02  0.14044E+02  0.00000E+00 1
  0.31230E+02  0.14043E+02  0.00000E+00 1
 ZONE I=           3 ,J=           3 , F=POINT
  0.31250E+02  0.93742E+01  0.00000E+00 1
  0.34374E+02  0.93737E+01  0.00000E+00 1
  0.37498E+02  0.93731E+01  0.00000E+00 1
  0.31240E+02  0.11708E+02  0.00000E+00 1
  0.34364E+02  0.11708E+02  0.00000E+00 1
  0.37488E+02  0.11708E+02  0.00000E+00 1
  0.31230E+02  0.14043E+02  0.00000E+00 1
  0.34354E+02  0.14042E+02  0.00000E+00 1
  0.37478E+02  0.14042E+02  0.00000E+00 1
 ZONE I=           3 ,J=           3 , F=POINT
  0.24988E+02  0.14045E+02  0.00000E+00 1
  0.28109E+02  0.14044E+02  0.00000E+00 1
  0.31230E+02  0.14043E+02  0.00000E+00 1
  0.24932E+02  0.16332E+02  0.00000E+00 1
  0.28052E+02  0.16333E+02  0.00000E+00 1
  0.31171E+02  0.16333E+02  0.00000E+00 1
  0.24876E+02  0.18620E+02  0.00000E+00 1
  0.27995E+02  0.18622E+02  0.00000E+00 1
  0.31113E+02  0.18623E+02  0.00000E+00 1
 ZONE I=           3 ,J=           3 , F=POINT
  0.31230E+02  0.14043E+02  0.00000E+00 1
  0.34354E+02  0.14042E+02  0.00000E+00 1
  0.37478E+02  0.14042E+02  0.00000E+00 1
  0.31171E+02  0.16333E+02  0.00000E+00 1
  0.34295E+02  0.16333E+02  0.00000E+00 1
  0.37419E+02  0.16333E+02  0.00000E+00 1
  0.31113E+02  0.18623E+02  0.00000E+00 1
  0.34237E+02  0.18624E+02  0.00000E+00 1
  0.37360E+02  0.18624E+02  0.00000E+00 1
 ZONE I=           3 ,J=           3 , F=POINT
  0.37498E+02  0.93731E+01  0.00000E+00 1
  0.40623E+02  0.93730E+01  0.00000E+00 1
  0.43748E+02  0.93729E+01  0.00000E+00 1
  0.37488E+02  0.11708E+02  0.00000E+00 1
  0.40613E+02  0.11708E+02  0.00000E+00 1
  0.43737E+02  0.11708E+02  0.00000E+00 1
  0.37478E+02  0.14042E+02  0.00000E+00 1
  0.40602E+02  0.14042E+02  0.00000E+00 1
  0.43727E+02  0.14042E+02  0.00000E+00 1
 ZONE I=           3 ,J=           3 , F=POINT
  0.43748E+02  0.93729E+01  0.00000E+00 1
  0.46873E+02  0.93729E+01  0.00000E+00 1
  0.49998E+02  0.93729E+01  0.00000E+00 1
  0.43737E+02  0.11708E+02  0.00000E+00 1
  0.46862E+02  0.11708E+02  0.00000E+00 1
  0.49987E+02  0.11707E+02  0.00000E+00 1
  0.43727E+02  0.14042E+02  0.00000E+00 1
  0.46852E+02  0.14042E+02  0.00000E+00 1
  0.49977E+02  0.14042E+02  0.00000E+00 1
 ZONE I=           3 ,J=           3 , F=POINT
  0.37478E+02  0.14042E+02  0.00000E+00 1
  0.40602E+02  0.14042E+02  0.00000E+00 1
  0.43727E+02  0.14042E+02  0.00000E+00 1
  0.37419E+02  0.16333E+02  0.00000E+00 1
  0.40544E+02  0.16333E+02  0.00000E+00 1
  0.43669E+02  0.16333E+02  0.00000E+00 1
  0.37360E+02  0.18624E+02  0.00000E+00 1
  0.40485E+02  0.18624E+02  0.00000E+00 1
  0.43610E+02  0.18624E+02  0.00000E+00 1
 ZONE I=           3 ,J=           3 , F=POINT
  0.43727E+02  0.14042E+02  0.00000E+00 1
  0.46852E+02  0.14042E+02  0.00000E+00 1
  0.49977E+02  0.14042E+02  0.00000E+00 1
  0.43669E+02  0.16333E+02  0.00000E+00 1
  0.46793E+02  0.16333E+02  0.00000E+00 1
  0.49918E+02  0.16333E+02  0.00000E+00 1
  0.43610E+02  0.18624E+02  0.00000E+00 1
  0.46735E+02  0.18624E+02  0.00000E+00 1
  0.49860E+02  0.18624E+02  0.00000E+00 1
 ZONE I=           3 ,J=           3 , F=POINT
  0.62383E+01  0.18628E+02  0.00000E+00 1
  0.93454E+01  0.18614E+02  0.00000E+00 1
  0.12453E+02  0.18599E+02  0.00000E+00 1
  0.61698E+01  0.20757E+02  0.00000E+00 1
  0.92438E+01  0.20742E+02  0.00000E+00 1
  0.12318E+02  0.20728E+02  0.00000E+00 1
  0.61013E+01  0.22885E+02  0.00000E+00 1
  0.91423E+01  0.22871E+02  0.00000E+00 1
  0.12183E+02  0.22857E+02  0.00000E+00 1
 ZONE I=           3 ,J=           3 , F=POINT
  0.61013E+01  0.22885E+02  0.00000E+00 1
  0.91423E+01  0.22871E+02  0.00000E+00 1
  0.12183E+02  0.22857E+02  0.00000E+00 1
  0.59063E+01  0.24755E+02  0.00000E+00 1
  0.88619E+01  0.24751E+02  0.00000E+00 1
  0.11817E+02  0.24746E+02  0.00000E+00 1
  0.57114E+01  0.26625E+02  0.00000E+00 1
  0.85815E+01  0.26630E+02  0.00000E+00 1
  0.11451E+02  0.26635E+02  0.00000E+00 1
 ZONE I=           3 ,J=           3 , F=POINT
  0.12453E+02  0.18599E+02  0.00000E+00 1
  0.15555E+02  0.18605E+02  0.00000E+00 1
  0.18657E+02  0.18611E+02  0.00000E+00 1
  0.12318E+02  0.20728E+02  0.00000E+00 1
  0.15395E+02  0.20740E+02  0.00000E+00 1
  0.18473E+02  0.20752E+02  0.00000E+00 1
  0.12183E+02  0.22857E+02  0.00000E+00 1
  0.15236E+02  0.22875E+02  0.00000E+00 1
  0.18289E+02  0.22893E+02  0.00000E+00 1
 ZONE I=           3 ,J=           3 , F=POINT
  0.18657E+02  0.18611E+02  0.00000E+00 1
  0.21766E+02  0.18615E+02  0.00000E+00 1
  0.24876E+02  0.18620E+02  0.00000E+00 1
  0.18473E+02  0.20752E+02  0.00000E+00 1
  0.21571E+02  0.20760E+02  0.00000E+00 1
  0.24668E+02  0.20768E+02  0.00000E+00 1
  0.18289E+02  0.22893E+02  0.00000E+00 1
  0.21375E+02  0.22904E+02  0.00000E+00 1
  0.24461E+02  0.22915E+02  0.00000E+00 1
 ZONE I=           3 ,J=           3 , F=POINT
  0.12183E+02  0.22857E+02  0.00000E+00 1
  0.15236E+02  0.22875E+02  0.00000E+00 1
  0.18289E+02  0.22893E+02  0.00000E+00 1
  0.11817E+02  0.24746E+02  0.00000E+00 1
  0.14818E+02  0.24764E+02  0.00000E+00 1
  0.17819E+02  0.24783E+02  0.00000E+00 1
  0.11451E+02  0.26635E+02  0.00000E+00 1
  0.14400E+02  0.26654E+02  0.00000E+00 1
  0.17349E+02  0.26672E+02  0.00000E+00 1
 ZONE I=           3 ,J=           3 , F=POINT
  0.18289E+02  0.22893E+02  0.00000E+00 1
  0.21375E+02  0.22904E+02  0.00000E+00 1
  0.24461E+02  0.22915E+02  0.00000E+00 1
  0.17819E+02  0.24783E+02  0.00000E+00 1
  0.20889E+02  0.24793E+02  0.00000E+00 1
  0.23958E+02  0.24804E+02  0.00000E+00 1
  0.17349E+02  0.26672E+02  0.00000E+00 1
  0.20402E+02  0.26683E+02  0.00000E+00 1
  0.23455E+02  0.26693E+02  0.00000E+00 1
 ZONE I=           3 ,J=           3 , F=POINT
  0.24876E+02  0.18620E+02  0.00000E+00 1
  0.27995E+02  0.18622E+02  0.00000E+00 1
  0.31113E+02  0.18623E+02  0.00000E+00 1
  0.24668E+02  0.20768E+02  0.00000E+00 1
  0.27784E+02  0.20770E+02  0.00000E+00 1
  0.30899E+02  0.20773E+02  0.00000E+00 1
  0.24461E+02  0.22915E+02  0.00000E+00 1
  0.27573E+02  0.22919E+02  0.00000E+00 1
  0.30685E+02  0.22922E+02  0.00000E+00 1
 ZONE I=           3 ,J=           3 , F=POINT
  0.31113E+02  0.18623E+02  0.00000E+00 1
  0.34237E+02  0.18624E+02  0.00000E+00 1
  0.37360E+02  0.18624E+02  0.00000E+00 1
  0.30899E+02  0.20773E+02  0.00000E+00 1
  0.34022E+02  0.20773E+02  0.00000E+00 1
  0.37145E+02  0.20774E+02  0.00000E+00 1
  0.30685E+02  0.22922E+02  0.00000E+00 1
  0.33807E+02  0.22923E+02  0.00000E+00 1
  0.36930E+02  0.22923E+02  0.00000E+00 1
 ZONE I=           3 ,J=           3 , F=POINT
  0.24461E+02  0.22915E+02  0.00000E+00 1
  0.27573E+02  0.22919E+02  0.00000E+00 1
  0.30685E+02  0.22922E+02  0.00000E+00 1
  0.23958E+02  0.24804E+02  0.00000E+00 1
  0.27069E+02  0.24807E+02  0.00000E+00 1
  0.30179E+02  0.24811E+02  0.00000E+00 1
  0.23455E+02  0.26693E+02  0.00000E+00 1
  0.26564E+02  0.26696E+02  0.00000E+00 1
  0.29673E+02  0.26699E+02  0.00000E+00 1
 ZONE I=           3 ,J=           3 , F=POINT
  0.30685E+02  0.22922E+02  0.00000E+00 1
  0.33807E+02  0.22923E+02  0.00000E+00 1
  0.36930E+02  0.22923E+02  0.00000E+00 1
  0.30179E+02  0.24811E+02  0.00000E+00 1
  0.33301E+02  0.24811E+02  0.00000E+00 1
  0.36424E+02  0.24812E+02  0.00000E+00 1
  0.29673E+02  0.26699E+02  0.00000E+00 1
  0.32796E+02  0.26700E+02  0.00000E+00 1
  0.35918E+02  0.26700E+02  0.00000E+00 1
 ZONE I=           3 ,J=           3 , F=POINT
  0.37360E+02  0.18624E+02  0.00000E+00 1
  0.40485E+02  0.18624E+02  0.00000E+00 1
  0.43610E+02  0.18624E+02  0.00000E+00 1
  0.37145E+02  0.20774E+02  0.00000E+00 1
  0.40270E+02  0.20774E+02  0.00000E+00 1
  0.43394E+02  0.20774E+02  0.00000E+00 1
  0.36930E+02  0.22923E+02  0.00000E+00 1
  0.40054E+02  0.22924E+02  0.00000E+00 1
  0.43179E+02  0.22924E+02  0.00000E+00 1
 ZONE I=           3 ,J=           3 , F=POINT
  0.43610E+02  0.18624E+02  0.00000E+00 1
  0.46735E+02  0.18624E+02  0.00000E+00 1
  0.49860E+02  0.18624E+02  0.00000E+00 1
  0.43394E+02  0.20774E+02  0.00000E+00 1
  0.46519E+02  0.20774E+02  0.00000E+00 1
  0.49644E+02  0.20774E+02  0.00000E+00 1
  0.43179E+02  0.22924E+02  0.00000E+00 1
  0.46304E+02  0.22924E+02  0.00000E+00 1
  0.49429E+02  0.22924E+02  0.00000E+00 1
 ZONE I=           3 ,J=           3 , F=POINT
  0.36930E+02  0.22923E+02  0.00000E+00 1
  0.40054E+02  0.22924E+02  0.00000E+00 1
  0.43179E+02  0.22924E+02  0.00000E+00 1
  0.36424E+02  0.24812E+02  0.00000E+00 1
  0.39549E+02  0.24812E+02  0.00000E+00 1
  0.42673E+02  0.24812E+02  0.00000E+00 1
  0.35918E+02  0.26700E+02  0.00000E+00 1
  0.39043E+02  0.26701E+02  0.00000E+00 1
  0.42167E+02  0.26701E+02  0.00000E+00 1
 ZONE I=           3 ,J=           3 , F=POINT
  0.43179E+02  0.22924E+02  0.00000E+00 1
  0.46304E+02  0.22924E+02  0.00000E+00 1
  0.49429E+02  0.22924E+02  0.00000E+00 1
  0.42673E+02  0.24812E+02  0.00000E+00 1
  0.45798E+02  0.24812E+02  0.00000E+00 1
  0.48923E+02  0.24812E+02  0.00000E+00 1
  0.42167E+02  0.26701E+02  0.00000E+00 1
  0.45292E+02  0.26701E+02  0.00000E+00 1
  0.48417E+02  0.26701E+02  0.00000E+00 1
 ZONE I=           3 ,J=           3 , F=POINT
  0.50000E+02  0.46875E+01  0.00000E+00 1
  0.53125E+02  0.46875E+01  0.00000E+00 1
  0.56250E+02  0.46875E+01  0.00000E+00 1
  0.49999E+02  0.70302E+01  0.00000E+00 1
  0.53124E+02  0.70302E+01  0.00000E+00 1
  0.56249E+02  0.70302E+01  0.00000E+00 1
  0.49998E+02  0.93729E+01  0.00000E+00 1
  0.53123E+02  0.93729E+01  0.00000E+00 1
  0.56248E+02  0.93729E+01  0.00000E+00 1
 ZONE I=           3 ,J=           3 , F=POINT
  0.56250E+02  0.46875E+01  0.00000E+00 1
  0.59375E+02  0.46875E+01  0.00000E+00 1
  0.62500E+02  0.46875E+01  0.00000E+00 1
  0.56249E+02  0.70302E+01  0.00000E+00 1
  0.59374E+02  0.70302E+01  0.00000E+00 1
  0.62499E+02  0.70302E+01  0.00000E+00 1
  0.56248E+02  0.93729E+01  0.00000E+00 1
  0.59373E+02  0.93729E+01  0.00000E+00 1
  0.62498E+02  0.93729E+01  0.00000E+00 1
 ZONE I=           3 ,J=           3 , F=POINT
  0.62500E+02  0.46875E+01  0.00000E+00 1
  0.65625E+02  0.46875E+01  0.00000E+00 1
  0.68750E+02  0.46875E+01  0.00000E+00 1
  0.62499E+02  0.70302E+01  0.00000E+00 1
  0.65624E+02  0.70302E+01  0.00000E+00 1
  0.68749E+02  0.70302E+01  0.00000E+00 1
  0.62498E+02  0.93729E+01  0.00000E+00 1
  0.65623E+02  0.93729E+01  0.00000E+00 1
  0.68748E+02  0.93729E+01  0.00000E+00 1
 ZONE I=           3 ,J=           3 , F=POINT
  0.68750E+02  0.46875E+01  0.00000E+00 1
  0.71875E+02  0.46875E+01  0.00000E+00 1
  0.75000E+02  0.46875E+01  0.00000E+00 1
  0.68749E+02  0.70302E+01  0.00000E+00 1
  0.71874E+02  0.70302E+01  0.00000E+00 1
  0.74999E+02  0.70302E+01  0.00000E+00 1
  0.68748E+02  0.93729E+01  0.00000E+00 1
  0.71873E+02  0.93729E+01  0.00000E+00 1
  0.74998E+02  0.93729E+01  0.00000E+00 1
 ZONE I=           3 ,J=           3 , F=POINT
  0.49998E+02  0.93729E+01  0.00000E+00 1
  0.53123E+02  0.93729E+01  0.00000E+00 1
  0.56248E+02  0.93729E+01  0.00000E+00 1
  0.49987E+02  0.11707E+02  0.00000E+00 1
  0.53112E+02  0.11707E+02  0.00000E+00 1
  0.56237E+02  0.11707E+02  0.00000E+00 1
  0.49977E+02  0.14042E+02  0.00000E+00 1
  0.53102E+02  0.14042E+02  0.00000E+00 1
  0.56227E+02  0.14042E+02  0.00000E+00 1
 ZONE I=           3 ,J=           3 , F=POINT
  0.56248E+02  0.93729E+01  0.00000E+00 1
  0.59373E+02  0.93729E+01  0.00000E+00 1
  0.62498E+02  0.93729E+01  0.00000E+00 1
  0.56237E+02  0.11707E+02  0.00000E+00 1
  0.59362E+02  0.11707E+02  0.00000E+00 1
  0.62487E+02  0.11708E+02  0.00000E+00 1
  0.56227E+02  0.14042E+02  0.00000E+00 1
  0.59352E+02  0.14042E+02  0.00000E+00 1
  0.62477E+02  0.14042E+02  0.00000E+00 1
 ZONE I=           3 ,J=           3 , F=POINT
  0.49977E+02  0.14042E+02  0.00000E+00 1
  0.53102E+02  0.14042E+02  0.00000E+00 1
  0.56227E+02  0.14042E+02  0.00000E+00 1
  0.49918E+02  0.16333E+02  0.00000E+00 1
  0.53043E+02  0.16333E+02  0.00000E+00 1
  0.56168E+02  0.16333E+02  0.00000E+00 1
  0.49860E+02  0.18624E+02  0.00000E+00 1
  0.52985E+02  0.18624E+02  0.00000E+00 1
  0.56110E+02  0.18624E+02  0.00000E+00 1
 ZONE I=           3 ,J=           3 , F=POINT
  0.56227E+02  0.14042E+02  0.00000E+00 1
  0.59352E+02  0.14042E+02  0.00000E+00 1
  0.62477E+02  0.14042E+02  0.00000E+00 1
  0.56168E+02  0.16333E+02  0.00000E+00 1
  0.59293E+02  0.16333E+02  0.00000E+00 1
  0.62418E+02  0.16333E+02  0.00000E+00 1
  0.56110E+02  0.18624E+02  0.00000E+00 1
  0.59235E+02  0.18624E+02  0.00000E+00 1
  0.62360E+02  0.18624E+02  0.00000E+00 1
 ZONE I=           3 ,J=           3 , F=POINT
  0.62498E+02  0.93729E+01  0.00000E+00 1
  0.65623E+02  0.93729E+01  0.00000E+00 1
  0.68748E+02  0.93729E+01  0.00000E+00 1
  0.62487E+02  0.11708E+02  0.00000E+00 1
  0.65612E+02  0.11708E+02  0.00000E+00 1
  0.68737E+02  0.11708E+02  0.00000E+00 1
  0.62477E+02  0.14042E+02  0.00000E+00 1
  0.65602E+02  0.14042E+02  0.00000E+00 1
  0.68727E+02  0.14042E+02  0.00000E+00 1
 ZONE I=           3 ,J=           3 , F=POINT
  0.68748E+02  0.93729E+01  0.00000E+00 1
  0.71873E+02  0.93729E+01  0.00000E+00 1
  0.74998E+02  0.93729E+01  0.00000E+00 1
  0.68737E+02  0.11708E+02  0.00000E+00 1
  0.71862E+02  0.11708E+02  0.00000E+00 1
  0.74987E+02  0.11708E+02  0.00000E+00 1
  0.68727E+02  0.14042E+02  0.00000E+00 1
  0.71852E+02  0.14042E+02  0.00000E+00 1
  0.74977E+02  0.14042E+02  0.00000E+00 1
 ZONE I=           3 ,J=           3 , F=POINT
  0.62477E+02  0.14042E+02  0.00000E+00 1
  0.65602E+02  0.14042E+02  0.00000E+00 1
  0.68727E+02  0.14042E+02  0.00000E+00 1
  0.62418E+02  0.16333E+02  0.00000E+00 1
  0.65543E+02  0.16333E+02  0.00000E+00 1
  0.68668E+02  0.16333E+02  0.00000E+00 1
  0.62360E+02  0.18624E+02  0.00000E+00 1
  0.65485E+02  0.18624E+02  0.00000E+00 1
  0.68610E+02  0.18624E+02  0.00000E+00 1
 ZONE I=           3 ,J=           3 , F=POINT
  0.68727E+02  0.14042E+02  0.00000E+00 1
  0.71852E+02  0.14042E+02  0.00000E+00 1
  0.74977E+02  0.14042E+02  0.00000E+00 1
  0.68668E+02  0.16333E+02  0.00000E+00 1
  0.71793E+02  0.16333E+02  0.00000E+00 1
  0.74918E+02  0.16333E+02  0.00000E+00 1
  0.68610E+02  0.18624E+02  0.00000E+00 1
  0.71735E+02  0.18624E+02  0.00000E+00 1
  0.74860E+02  0.18624E+02  0.00000E+00 1
 ZONE I=           3 ,J=           3 , F=POINT
  0.75000E+02  0.46875E+01  0.00000E+00 1
  0.78125E+02  0.46875E+01  0.00000E+00 1
  0.81250E+02  0.46875E+01  0.00000E+00 1
  0.74999E+02  0.70302E+01  0.00000E+00 1
  0.78124E+02  0.70302E+01  0.00000E+00 1
  0.81249E+02  0.70302E+01  0.00000E+00 1
  0.74998E+02  0.93729E+01  0.00000E+00 1
  0.78123E+02  0.93729E+01  0.00000E+00 1
  0.81248E+02  0.93729E+01  0.00000E+00 1
 ZONE I=           3 ,J=           3 , F=POINT
  0.81250E+02  0.46875E+01  0.00000E+00 1
  0.84375E+02  0.46875E+01  0.00000E+00 1
  0.87500E+02  0.46875E+01  0.00000E+00 1
  0.81249E+02  0.70302E+01  0.00000E+00 1
  0.84374E+02  0.70302E+01  0.00000E+00 1
  0.87499E+02  0.70302E+01  0.00000E+00 1
  0.81248E+02  0.93729E+01  0.00000E+00 1
  0.84373E+02  0.93729E+01  0.00000E+00 1
  0.87498E+02  0.93730E+01  0.00000E+00 1
 ZONE I=           3 ,J=           3 , F=POINT
  0.87500E+02  0.46875E+01  0.00000E+00 1
  0.90625E+02  0.46876E+01  0.00000E+00 1
  0.93750E+02  0.46876E+01  0.00000E+00 1
  0.87499E+02  0.70302E+01  0.00000E+00 1
  0.90624E+02  0.70303E+01  0.00000E+00 1
  0.93749E+02  0.70303E+01  0.00000E+00 1
  0.87498E+02  0.93730E+01  0.00000E+00 1
  0.90623E+02  0.93730E+01  0.00000E+00 1
  0.93748E+02  0.93730E+01  0.00000E+00 1
 ZONE I=           3 ,J=           3 , F=POINT
  0.93750E+02  0.46876E+01  0.00000E+00 1
  0.96875E+02  0.46876E+01  0.00000E+00 1
  0.10000E+03  0.46876E+01  0.00000E+00 1
  0.93749E+02  0.70303E+01  0.00000E+00 1
  0.96874E+02  0.70303E+01  0.00000E+00 1
  0.99999E+02  0.70303E+01  0.00000E+00 1
  0.93748E+02  0.93730E+01  0.00000E+00 1
  0.96873E+02  0.93730E+01  0.00000E+00 1
  0.99998E+02  0.93730E+01  0.00000E+00 1
 ZONE I=           3 ,J=           3 , F=POINT
  0.74998E+02  0.93729E+01  0.00000E+00 1
  0.78123E+02  0.93729E+01  0.00000E+00 1
  0.81248E+02  0.93729E+01  0.00000E+00 1
  0.74987E+02  0.11708E+02  0.00000E+00 1
  0.78112E+02  0.11708E+02  0.00000E+00 1
  0.81237E+02  0.11708E+02  0.00000E+00 1
  0.74977E+02  0.14042E+02  0.00000E+00 1
  0.78102E+02  0.14042E+02  0.00000E+00 1
  0.81227E+02  0.14042E+02  0.00000E+00 1
 ZONE I=           3 ,J=           3 , F=POINT
  0.81248E+02  0.93729E+01  0.00000E+00 1
  0.84373E+02  0.93729E+01  0.00000E+00 1
  0.87498E+02  0.93730E+01  0.00000E+00 1
  0.81237E+02  0.11708E+02  0.00000E+00 1
  0.84362E+02  0.11708E+02  0.00000E+00 1
  0.87487E+02  0.11708E+02  0.00000E+00 1
  0.81227E+02  0.14042E+02  0.00000E+00 1
  0.84352E+02  0.14042E+02  0.00000E+00 1
  0.87477E+02  0.14042E+02  0.00000E+00 1
 ZONE I=           3 ,J=           3 , F=POINT
  0.74977E+02  0.14042E+02  0.00000E+00 1
  0.78102E+02  0.14042E+02  0.00000E+00 1
  0.81227E+02  0.14042E+02  0.00000E+00 1
  0.74918E+02  0.16333E+02  0.00000E+00 1
  0.78043E+02  0.16333E+02  0.00000E+00 1
  0.81168E+02  0.16333E+02  0.00000E+00 1
  0.74860E+02  0.18624E+02  0.00000E+00 1
  0.77985E+02  0.18624E+02  0.00000E+00 1
  0.81110E+02  0.18624E+02  0.00000E+00 1
 ZONE I=           3 ,J=           3 , F=POINT
  0.81227E+02  0.14042E+02  0.00000E+00 1
  0.84352E+02  0.14042E+02  0.00000E+00 1
  0.87477E+02  0.14042E+02  0.00000E+00 1
  0.81168E+02  0.16333E+02  0.00000E+00 1
  0.84293E+02  0.16333E+02  0.00000E+00 1
  0.87418E+02  0.16333E+02  0.00000E+00 1
  0.81110E+02  0.18624E+02  0.00000E+00 1
  0.84235E+02  0.18624E+02  0.00000E+00 1
  0.87360E+02  0.18624E+02  0.00000E+00 1
 ZONE I=           3 ,J=           3 , F=POINT
  0.87498E+02  0.93730E+01  0.00000E+00 1
  0.90623E+02  0.93730E+01  0.00000E+00 1
  0.93748E+02  0.93730E+01  0.00000E+00 1
  0.87487E+02  0.11708E+02  0.00000E+00 1
  0.90612E+02  0.11708E+02  0.00000E+00 1
  0.93737E+02  0.11708E+02  0.00000E+00 1
  0.87477E+02  0.14042E+02  0.00000E+00 1
  0.90602E+02  0.14042E+02  0.00000E+00 1
  0.93727E+02  0.14042E+02  0.00000E+00 1
 ZONE I=           3 ,J=           3 , F=POINT
  0.93748E+02  0.93730E+01  0.00000E+00 1
  0.96873E+02  0.93730E+01  0.00000E+00 1
  0.99998E+02  0.93730E+01  0.00000E+00 1
  0.93737E+02  0.11708E+02  0.00000E+00 1
  0.96862E+02  0.11708E+02  0.00000E+00 1
  0.99987E+02  0.11708E+02  0.00000E+00 1
  0.93727E+02  0.14042E+02  0.00000E+00 1
  0.96852E+02  0.14042E+02  0.00000E+00 1
  0.99977E+02  0.14042E+02  0.00000E+00 1
 ZONE I=           3 ,J=           3 , F=POINT
  0.87477E+02  0.14042E+02  0.00000E+00 1
  0.90602E+02  0.14042E+02  0.00000E+00 1
  0.93727E+02  0.14042E+02  0.00000E+00 1
  0.87418E+02  0.16333E+02  0.00000E+00 1
  0.90543E+02  0.16333E+02  0.00000E+00 1
  0.93668E+02  0.16333E+02  0.00000E+00 1
  0.87360E+02  0.18624E+02  0.00000E+00 1
  0.90485E+02  0.18624E+02  0.00000E+00 1
  0.93610E+02  0.18624E+02  0.00000E+00 1
 ZONE I=           3 ,J=           3 , F=POINT
  0.93727E+02  0.14042E+02  0.00000E+00 1
  0.96852E+02  0.14042E+02  0.00000E+00 1
  0.99977E+02  0.14042E+02  0.00000E+00 1
  0.93668E+02  0.16333E+02  0.00000E+00 1
  0.96793E+02  0.16333E+02  0.00000E+00 1
  0.99918E+02  0.16333E+02  0.00000E+00 1
  0.93610E+02  0.18624E+02  0.00000E+00 1
  0.96735E+02  0.18624E+02  0.00000E+00 1
  0.99860E+02  0.18624E+02  0.00000E+00 1
 ZONE I=           3 ,J=           3 , F=POINT
  0.49860E+02  0.18624E+02  0.00000E+00 1
  0.52985E+02  0.18624E+02  0.00000E+00 1
  0.56110E+02  0.18624E+02  0.00000E+00 1
  0.49644E+02  0.20774E+02  0.00000E+00 1
  0.52769E+02  0.20774E+02  0.00000E+00 1
  0.55894E+02  0.20774E+02  0.00000E+00 1
  0.49429E+02  0.22924E+02  0.00000E+00 1
  0.52554E+02  0.22924E+02  0.00000E+00 1
  0.55679E+02  0.22924E+02  0.00000E+00 1
 ZONE I=           3 ,J=           3 , F=POINT
  0.56110E+02  0.18624E+02  0.00000E+00 1
  0.59235E+02  0.18624E+02  0.00000E+00 1
  0.62360E+02  0.18624E+02  0.00000E+00 1
  0.55894E+02  0.20774E+02  0.00000E+00 1
  0.59019E+02  0.20774E+02  0.00000E+00 1
  0.62144E+02  0.20774E+02  0.00000E+00 1
  0.55679E+02  0.22924E+02  0.00000E+00 1
  0.58804E+02  0.22924E+02  0.00000E+00 1
  0.61929E+02  0.22924E+02  0.00000E+00 1
 ZONE I=           3 ,J=           3 , F=POINT
  0.49429E+02  0.22924E+02  0.00000E+00 1
  0.52554E+02  0.22924E+02  0.00000E+00 1
  0.55679E+02  0.22924E+02  0.00000E+00 1
  0.48923E+02  0.24812E+02  0.00000E+00 1
  0.52048E+02  0.24812E+02  0.00000E+00 1
  0.55173E+02  0.24812E+02  0.00000E+00 1
  0.48417E+02  0.26701E+02  0.00000E+00 1
  0.51542E+02  0.26701E+02  0.00000E+00 1
  0.54667E+02  0.26701E+02  0.00000E+00 1
 ZONE I=           3 ,J=           3 , F=POINT
  0.55679E+02  0.22924E+02  0.00000E+00 1
  0.58804E+02  0.22924E+02  0.00000E+00 1
  0.61929E+02  0.22924E+02  0.00000E+00 1
  0.55173E+02  0.24812E+02  0.00000E+00 1
  0.58298E+02  0.24812E+02  0.00000E+00 1
  0.61423E+02  0.24812E+02  0.00000E+00 1
  0.54667E+02  0.26701E+02  0.00000E+00 1
  0.57792E+02  0.26701E+02  0.00000E+00 1
  0.60917E+02  0.26701E+02  0.00000E+00 1
 ZONE I=           3 ,J=           3 , F=POINT
  0.62360E+02  0.18624E+02  0.00000E+00 1
  0.65485E+02  0.18624E+02  0.00000E+00 1
  0.68610E+02  0.18624E+02  0.00000E+00 1
  0.62144E+02  0.20774E+02  0.00000E+00 1
  0.65269E+02  0.20774E+02  0.00000E+00 1
  0.68394E+02  0.20774E+02  0.00000E+00 1
  0.61929E+02  0.22924E+02  0.00000E+00 1
  0.65054E+02  0.22924E+02  0.00000E+00 1
  0.68179E+02  0.22924E+02  0.00000E+00 1
 ZONE I=           3 ,J=           3 , F=POINT
  0.68610E+02  0.18624E+02  0.00000E+00 1
  0.71735E+02  0.18624E+02  0.00000E+00 1
  0.74860E+02  0.18624E+02  0.00000E+00 1
  0.68394E+02  0.20774E+02  0.00000E+00 1
  0.71519E+02  0.20774E+02  0.00000E+00 1
  0.74644E+02  0.20774E+02  0.00000E+00 1
  0.68179E+02  0.22924E+02  0.00000E+00 1
  0.71304E+02  0.22924E+02  0.00000E+00 1
  0.74429E+02  0.22924E+02  0.00000E+00 1
 ZONE I=           3 ,J=           3 , F=POINT
  0.61929E+02  0.22924E+02  0.00000E+00 1
  0.65054E+02  0.22924E+02  0.00000E+00 1
  0.68179E+02  0.22924E+02  0.00000E+00 1
  0.61423E+02  0.24812E+02  0.00000E+00 1
  0.64548E+02  0.24812E+02  0.00000E+00 1
  0.67673E+02  0.24812E+02  0.00000E+00 1
  0.60917E+02  0.26701E+02  0.00000E+00 1
  0.64042E+02  0.26701E+02  0.00000E+00 1
  0.67167E+02  0.26701E+02  0.00000E+00 1
 ZONE I=           3 ,J=           3 , F=POINT
  0.68179E+02  0.22924E+02  0.00000E+00 1
  0.71304E+02  0.22924E+02  0.00000E+00 1
  0.74429E+02  0.22924E+02  0.00000E+00 1
  0.67673E+02  0.24812E+02  0.00000E+00 1
  0.70798E+02  0.24812E+02  0.00000E+00 1
  0.73923E+02  0.24812E+02  0.00000E+00 1
  0.67167E+02  0.26701E+02  0.00000E+00 1
  0.70292E+02  0.26701E+02  0.00000E+00 1
  0.73417E+02  0.26701E+02  0.00000E+00 1
 ZONE I=           3 ,J=           3 , F=POINT
  0.74860E+02  0.18624E+02  0.00000E+00 1
  0.77985E+02  0.18624E+02  0.00000E+00 1
  0.81110E+02  0.18624E+02  0.00000E+00 1
  0.74644E+02  0.20774E+02  0.00000E+00 1
  0.77769E+02  0.20774E+02  0.00000E+00 1
  0.80894E+02  0.20774E+02  0.00000E+00 1
  0.74429E+02  0.22924E+02  0.00000E+00 1
  0.77554E+02  0.22924E+02  0.00000E+00 1
  0.80679E+02  0.22924E+02  0.00000E+00 1
 ZONE I=           3 ,J=           3 , F=POINT
  0.81110E+02  0.18624E+02  0.00000E+00 1
  0.84235E+02  0.18624E+02  0.00000E+00 1
  0.87360E+02  0.18624E+02  0.00000E+00 1
  0.80894E+02  0.20774E+02  0.00000E+00 1
  0.84019E+02  0.20774E+02  0.00000E+00 1
  0.87144E+02  0.20774E+02  0.00000E+00 1
  0.80679E+02  0.22924E+02  0.00000E+00 1
  0.83804E+02  0.22924E+02  0.00000E+00 1
  0.86929E+02  0.22924E+02  0.00000E+00 1
 ZONE I=           3 ,J=           3 , F=POINT
  0.74429E+02  0.22924E+02  0.00000E+00 1
  0.77554E+02  0.22924E+02  0.00000E+00 1
  0.80679E+02  0.22924E+02  0.00000E+00 1
  0.73923E+02  0.24812E+02  0.00000E+00 1
  0.77048E+02  0.24812E+02  0.00000E+00 1
  0.80173E+02  0.24812E+02  0.00000E+00 1
  0.73417E+02  0.26701E+02  0.00000E+00 1
  0.76542E+02  0.26701E+02  0.00000E+00 1
  0.79667E+02  0.26701E+02  0.00000E+00 1
 ZONE I=           3 ,J=           3 , F=POINT
  0.80679E+02  0.22924E+02  0.00000E+00 1
  0.83804E+02  0.22924E+02  0.00000E+00 1
  0.86929E+02  0.22924E+02  0.00000E+00 1