 VARIABLES = "X", "Y", "Z"
 ZONE F=FEPOINT, ET=QUADRILATERAL, N=       18228 E=       17840
  -74324.269254907049        221.08535091982708        0.0000000000000000     
  -73970.641538715383        242.66257602315520        0.0000000000000000     
  -73494.928671318616        250.14568255244916        0.0000000000000000     
  -72999.507696636530        250.08570513339038        0.0000000000000000     
  -72499.976310176600        250.00540820800254        0.0000000000000000     
  -71999.999594302994        250.00013568616339        0.0000000000000000     
  -71500.000028910683        250.00000143409216        0.0000000000000000     
  -70999.999967681419        250.00000000552339        0.0000000000000000     
  -70499.999858900745        250.00000000000500        0.0000000000000000     
  -69999.999891199259        250.00000000000000        0.0000000000000000     
  -69500.000106674604        250.00000000000000        0.0000000000000000     
  -69000.000140347795        250.00000000000000        0.0000000000000000     
  -68500.000063518542        250.00000000000000        0.0000000000000000     
  -68000.000137835537        250.00000000000000        0.0000000000000000     
  -67500.000137425232        250.00000000000000        0.0000000000000000     
  -67000.000030090509        250.00000000000000        0.0000000000000000     
  -66499.999972101519        250.00000000000000        0.0000000000000000     
  -65999.999865692618        250.00000000000000        0.0000000000000000     
  -65499.999865058096        250.00000000000000        0.0000000000000000     
  -64999.999942287352        250.00000000000000        0.0000000000000000     
  -64499.999866541672        250.00000000000000        0.0000000000000000     
  -63999.999867187646        250.00000000000000        0.0000000000000000     
  -63499.999944477349        250.00000000000000        0.0000000000000000     
  -62999.999869610670        250.00000000000000        0.0000000000000000     
  -62499.999869378298        250.00000000000000        0.0000000000000000     
  -61999.999946668002        250.00000000000000        0.0000000000000000     
  -61499.999872679655        250.00000000000000        0.0000000000000000     
  -60999.999871568936        250.00000000000000        0.0000000000000000     
  -60499.999948858640        250.00000000000000        0.0000000000000000     
  -59999.999875748639        250.00000000000000        0.0000000000000000     
  -59499.999873760149        250.00000000000000        0.0000000000000000     
  -58999.999951100981        250.00000000000000        0.0000000000000000     
  -58499.999880695897        250.00000000000000        0.0000000000000000     
  -57999.999903029711        250.00000000000000        0.0000000000000000     
  -57500.000094727387        250.00000000000009        0.0000000000000000     
  -57000.000114356852        250.00000000000026        0.0000000000000000     
  -56500.000019628875        250.00000000000057        0.0000000000000000     
  -55999.999982559078        250.00000000000105        0.0000000000000000     
  -55499.999888614555        250.00000000000185        0.0000000000000000     
  -54999.999906056008        250.00000000000293        0.0000000000000000     
  -54500.000091804264        250.00000000000418        0.0000000000000000     
  -54000.000110145957        250.00000000000529        0.0000000000000000     
  -53500.000041625608        250.00000000000566        0.0000000000000000     
  -53000.000115942603        250.00000000000469        0.0000000000000000     
  -52500.000107223379        250.00000000000281        0.0000000000000000     
  -52000.000015220328        250.00000000000406        0.0000000000000000     
  -51499.999986971699        250.00000000002171        0.0000000000000000     
  -50999.999895894434        250.00000000008816        0.0000000000000000     
  -50499.999886951147        250.00000000027134        0.0000000000000000     
  -49999.999964193681        250.00000000069630        0.0000000000000000     
  -49499.999897231493        250.00000000156984        0.0000000000000000     
  -48999.999889094033        250.00000000319497        0.0000000000000000     
  -48499.999966383672        250.00000000595455        0.0000000000000000     
  -47999.999900300274        250.00000001022906        0.0000000000000000     
  -47499.999891284890        250.00000001620813        0.0000000000000000     
  -46999.999968615048        250.00000002357311        0.0000000000000000     
  -46499.999904857024        250.00000003109551        0.0000000000000000     
  -45999.999914925822        250.00000003635395        0.0000000000000000     
  -45500.000082842198        250.00000003606030        0.0000000000000000     
  -45000.000090586414        250.00000002792754        0.0000000000000000     
  -44500.000007743482        250.00000001555406        0.0000000000000000     
  -43999.999994405181        250.00000001828167        0.0000000000000000     
  -43499.999910988641        250.00000008801533        0.0000000000000000     
  -42999.999897877831        250.00000033396117        0.0000000000000000     
  -42499.999975100953        250.00000095330319        0.0000000000000000     
  -41999.999912485000        250.00000226020097        0.0000000000000000     
  -41499.999899884497        250.00000469691281        0.0000000000000000     
  -40999.999977074061        250.00000880057115        0.0000000000000000     
  -40499.999915259046        250.00001509101537        0.0000000000000000     
  -39999.999901725503        250.00002384701369        0.0000000000000000     
  -39499.999978960062        250.00003476242850        0.0000000000000000     
  -38999.999919366273        250.00004653551463        0.0000000000000000     
  -38499.999921948285        250.00005655779739        0.0000000000000000     
  -38000.000075394368        250.00006103708273        0.0000000000000000     
  -37500.000076270800        250.00005609062563        0.0000000000000000     
  -37000.000001339729        250.00004051781983        0.0000000000000000     
  -36500.000002687564        250.00002099019684        0.0000000000000000     
  -35999.999925027943        250.00002010959199        0.0000000000000000     
  -35499.999902462710        250.00008698623688        0.0000000000000000     
  -34999.999968633078        250.00030852481490        0.0000000000000000     
  -34499.999885369485        250.00081748753195        0.0000000000000000     
  -33999.999751826188        250.00179096765171        0.0000000000000000     
  -33499.999338760557        250.00343098079995        0.0000000000000000     
  -32999.998508372351        250.00591882140967        0.0000000000000000     
  -32499.997901659259        250.00933859372699        0.0000000000000000     
  -31999.997721402669        250.01357476040894        0.0000000000000000     
  -31499.997847103878        250.01820478697496        0.0000000000000000     
  -30999.998527119042        250.02243040851880        0.0000000000000000     
  -30499.999641015362        250.02511552902445        0.0000000000000000     
  -30000.000906454803        250.02501687734349        0.0000000000000000     
  -29500.002528075580        250.02129268826911        0.0000000000000000     
  -29000.003823288331        250.01433951657097        0.0000000000000000     
  -28500.002671325918        250.00692445495997        0.0000000000000000     
  -27999.996809167325        250.00544479558039        0.0000000000000000     
  -27499.984326372305        250.02097154317224        0.0000000000000000     
  -26999.962873007684        250.06955505313181        0.0000000000000000     
  -26499.923392872617        250.17116899590260        0.0000000000000000     
  -25999.609181104723        250.34720953250863        0.0000000000000000     
  -25495.627936531066        250.62243497086311        0.0000000000000000     
  -24975.025045450340        251.03711611430029        0.0000000000000000     
  -24441.221137136297        251.56689697667090        0.0000000000000000     
  -23920.677049676036        252.08560354262329        0.0000000000000000     
  -23416.805767864633        252.49070714090712        0.0000000000000000     
  -22916.643070058733        252.71154163998864        0.0000000000000000     
  -22416.778897323635        252.66422277247094        0.0000000000000000     
  -21916.922580455674        252.29977545701337        0.0000000000000000     
  -21417.011899295241        251.65610454273011        0.0000000000000000     
  -20916.971564674459        250.90391162119082        0.0000000000000000     
  -20416.717767769154        250.37996911399441        0.0000000000000000     
  -19916.186192018093        250.59189399873384        0.0000000000000000     
  -19415.375167868537        252.17641463085107        0.0000000000000000     
  -18914.389281862121        255.79682145807436        0.0000000000000000     
  -18413.486336210477        261.97688776264687        0.0000000000000000     
  -17913.591286827836        270.85001030491276        0.0000000000000000     
  -17420.135647088675        281.43772020098396        0.0000000000000000     
  -16956.610670278118        287.99622216952730        0.0000000000000000     
  -16628.720837863952        278.73761136805086        0.0000000000000000     
  -13740.043593374767        278.21467165462286        0.0000000000000000     
  -13397.923768031969        281.31603094421274        0.0000000000000000     
  -12920.117247056143        268.53096750729731        0.0000000000000000     
  -12419.693952760308        257.29113934557967        0.0000000000000000     
  -11922.188698453801        258.11883864336880        0.0000000000000000     
  -11454.506744247705        270.66254023517376        0.0000000000000000     
  -11124.228358348497        278.52300672272207        0.0000000000000000     
  -4244.8615209917198        247.47289299377846        0.0000000000000000     
  -3926.2176010030039        267.03598574892015        0.0000000000000000     
  -3614.0472651311502        287.06844021824384        0.0000000000000000     
   3753.7890518745826        249.99387890420232        0.0000000000000000     
   4072.7111085224574        264.87336751745789        0.0000000000000000     
   4385.1135297284545        278.74816033420541        0.0000000000000000     
   11262.762367832966        251.35814768831679        0.0000000000000000     
   11607.981924296066        254.85344861918924        0.0000000000000000     
   12088.218980191126        256.70028327837684        0.0000000000000000     
   12588.113033346264        267.40693856131770        0.0000000000000000     
   13081.536727462675        284.02728000291211        0.0000000000000000     
   13543.911342374848        296.16978056600504        0.0000000000000000     
   13870.609909653209        290.06497037822129        0.0000000000000000     
   16760.592836115553        269.13098147578631        0.0000000000000000     
   17103.625293374495        277.70192403334966        0.0000000000000000     
   17581.357902572134        271.46668789518407        0.0000000000000000     
   18080.204401221548        262.69037846806384        0.0000000000000000     
   18581.064904213217        256.26253977573498        0.0000000000000000     
   19082.039902866047        252.41811964161036        0.0000000000000000     
   19582.846861901402        250.66866583897306        0.0000000000000000     
   20083.378162989899        250.35595607191232        0.0000000000000000     
   20583.632580348120        250.83522627928630        0.0000000000000000     
   21083.672921555157        251.58388309984329        0.0000000000000000     
   21583.582898949382        252.24844552402493        0.0000000000000000     
   22083.438435714361        252.64344988178965        0.0000000000000000     
   22583.295017645152        252.72019744587902        0.0000000000000000     
   23083.185103672422        252.52201637146874        0.0000000000000000     
   23583.120926150863        252.13912602610898        0.0000000000000000     
   24083.100736683944        251.67169354023531        0.0000000000000000     
   24583.115242711909        251.20515129373251        0.0000000000000000     
   25083.151600907095        250.79803963580233        0.0000000000000000     
   25583.196645415468        250.48004420772222        0.0000000000000000     
   26083.240304121344        250.25668880317119        0.0000000000000000     
   26583.276838184927        250.11712142955392        0.0000000000000000     
   27083.303839708111        250.04216347464288        0.0000000000000000     
   27583.321080993370        250.01085335732765        0.0000000000000000     
   28083.330114425778        250.00474664258974        0.0000000000000000     
   28583.333448697838        250.01000735693043        0.0000000000000000     
   29083.333541923486        250.01777426170756        0.0000000000000000     
   29583.332403825356        250.02344595151914        0.0000000000000000     
   30083.330952495526        250.02548399162762        0.0000000000000000     
   30583.329422037528        250.02417877820633        0.0000000000000000     
   31083.328295923631        250.02063897491229        0.0000000000000000     
   31583.327850847367        250.01610509568863        0.0000000000000000     
   32083.327877442869        250.01157592382319        0.0000000000000000     
   32583.328269784848        250.00767641329480        0.0000000000000000     
   33083.328945595589        250.00467804067878        0.0000000000000000     
   33583.329340489057        250.00259212949535        0.0000000000000000     
   34083.329276379562        250.00127901403886        0.0000000000000000     
   34583.329340763717        250.00054027096076        0.0000000000000000     
   35083.329457125910        250.00018114772490        0.0000000000000000     
   35583.329332264380        250.00004342716289        0.0000000000000000     
   36083.329469808115        250.00001563825725        0.0000000000000000     
   36583.330069448341        250.00002929338541        0.0000000000000000     
   37083.330661454631        250.00004871219045        0.0000000000000000     
   37583.330698784826        250.00005970013962        0.0000000000000000     
   38083.330068132796        250.00005998548735        0.0000000000000000     
   38583.329431184473        250.00005247573534        0.0000000000000000     
   39083.329372723470        250.00004124409637        0.0000000000000000     
   39583.329467545169        250.00002961268834        0.0000000000000000     
   40083.329328112501        250.00001957879380        0.0000000000000000     
   40583.329366139820        250.00001194331327        0.0000000000000000     
   41083.329467715084        250.00000669789901        0.0000000000000000     
   41583.329328438151        250.00000341834325        0.0000000000000000     
   42083.329366398641        250.00000155607356        0.0000000000000000     
   42583.329468079792        250.00000060828734        0.0000000000000000     
   43083.329335424532        250.00000018984542        0.0000000000000000     
   43583.329469609511        250.00000004244325        0.0000000000000000     
   44083.330068375937        250.00000001269623        0.0000000000000000     
   44583.330660635285        250.00000002091772        0.0000000000000000     
   45083.330698535698        250.00000003257352        0.0000000000000000     
   45583.330068375923        250.00000003710443        0.0000000000000000     
   46083.329431711813        250.00000003447039        0.0000000000000000     
   46583.329373336877        250.00000002780610        0.0000000000000000     
   47083.329468110314        250.00000002012374        0.0000000000000000     
   47583.329328563515        250.00000001329443        0.0000000000000000     
   48083.329366462276        250.00000000808515        0.0000000000000000     
   48583.329467924392        250.00000000453679        0.0000000000000000     
   49083.329328561726        250.00000000234124        0.0000000000000000     
   49583.329366464452        250.00000000110040        0.0000000000000000     
   50083.329468110664        250.00000000046205        0.0000000000000000     
   50583.329335436589        250.00000000016706        0.0000000000000000     
   51083.329469612763        250.00000000004852        0.0000000000000000     
   51583.330068375915        250.00000000001012        0.0000000000000000     
   52083.330660634580        250.00000000000256        0.0000000000000000     
   52583.330698535261        250.00000000000364        0.0000000000000000     
   53083.330068375923        250.00000000000531        0.0000000000000000     
   53583.329431712089        250.00000000000563        0.0000000000000000     
   54083.329373339271        250.00000000000486        0.0000000000000000     
   54583.329468296841        250.00000000000358        0.0000000000000000     
   55083.329335438604        250.00000000000239        0.0000000000000000     
   55583.329469614786        250.00000000000148        0.0000000000000000     
   56083.330068562071        250.00000000000080        0.0000000000000000     
   56583.330667509385        250.00000000000040        0.0000000000000000     
   57083.330801687553        250.00000000000011        0.0000000000000000     
   57583.330669013463        250.00000000000000        0.0000000000000000     
   58083.330770659653        250.00000000000000        0.0000000000000000     
   58583.330808560335        250.00000000000000        0.0000000000000000     
   59083.330669013470        250.00000000000000        0.0000000000000000     
   59583.330763786871        250.00000000000000        0.0000000000000000     
   60083.330705410044        250.00000000000000        0.0000000000000000     
   60583.330068562063        250.00000000000000        0.0000000000000000     
   61083.329431714090        250.00000000000000        0.0000000000000000     
   61583.329373337278        250.00000000000000        0.0000000000000000     
   62083.329468110685        250.00000000000000        0.0000000000000000     
   62583.329328563828        250.00000000000000        0.0000000000000000     
   63083.329366464495        250.00000000000000        0.0000000000000000     
   63583.329468110678        250.00000000000000        0.0000000000000000     
   64083.329335436596        250.00000000000000        0.0000000000000000     
   64583.329469614779        250.00000000000000        0.0000000000000000     
   65083.330068562071        250.00000000000000        0.0000000000000000     
   65583.330667509377        250.00000000000000        0.0000000000000000     
   66083.330801687553        250.00000000000000        0.0000000000000000     
   66583.330669013478        250.00000000000000        0.0000000000000000     
   67083.330770659668        250.00000000000000        0.0000000000000000     
   67583.330808562343        250.00000000000000        0.0000000000000000     
   68083.330669199626        250.00000000000000        0.0000000000000000     
   68583.330770661676        250.00000000000000        0.0000000000000000     
   69083.330808562358        250.00000000000000        0.0000000000000000     
   69583.330669199626        250.00000000000000        0.0000000000000000     
   70083.330770661662        250.00000000000000        0.0000000000000000     
   70583.330808557483        250.00000000000500        0.0000000000000000     
   71083.330667841044        250.00000000552339        0.0000000000000000     
   71583.330630824072        250.00000143476336        0.0000000000000000     
   72083.324399444464        250.00013634380645        0.0000000000000000     
   72583.183563135317        250.00555405507012        0.0000000000000000     
   73081.469028607738        250.09675575385955        0.0000000000000000     
   73569.364625311282        250.46940045338019        0.0000000000000000     
   74016.649886237021        246.18323371308091        0.0000000000000000     
   74322.991826039681        227.63134614935586        0.0000000000000000     
  -74570.614642705899        321.05097687733723        0.0000000000000000     
  -73994.845512864922        481.17285874838768        0.0000000000000000     
  -73497.526934629757        499.42713602336573        0.0000000000000000     
  -72999.676861213215        500.06586015074481        0.0000000000000000     
  -72499.981165915058        500.00563540192366        0.0000000000000000     
  -71999.999515438365        500.00015842015785        0.0000000000000000     
  -71500.000003170615        500.00000180568384        0.0000000000000000     
  -70999.999991412944        500.00000000737532        0.0000000000000000     
  -70499.999977615211        500.00000000000705        0.0000000000000000     
  -69999.999986178620        500.00000000000000        0.0000000000000000     
  -69500.000013403493        500.00000000000000        0.0000000000000000     
  -69000.000022988723        500.00000000000000        0.0000000000000000     
  -68500.000018726641        500.00000000000000        0.0000000000000000     
  -68000.000023528046        500.00000000000000        0.0000000000000000     
  -67500.000022540989        500.00000000000000        0.0000000000000000     
  -67000.000008354764        500.00000000000000        0.0000000000000000     
  -66499.999992106459        500.00000000000000        0.0000000000000000     
  -65999.999978001360        500.00000000000000        0.0000000000000000     
  -65499.999977155472        500.00000000000000        0.0000000000000000     
  -64999.999982389585        500.00000000000000        0.0000000000000000     
  -64499.999977444662        500.00000000000000        0.0000000000000000     
  -63999.999977575681        500.00000000000000        0.0000000000000000     
  -63499.999982849360        500.00000000000000        0.0000000000000000     
  -62999.999977963336        500.00000000000000        0.0000000000000000     
  -62499.999978036009        500.00000000000000        0.0000000000000000     
  -61999.999983309681        500.00000000000000        0.0000000000000000     
  -61499.999978482003        500.00000000000000        0.0000000000000000     
  -60999.999978496322        500.00000000000000        0.0000000000000000     
  -60499.999983770002        500.00000000000000        0.0000000000000000     
  -59999.999979000691        500.00000000000000        0.0000000000000000     
  -59499.999978957108        500.00000000000000        0.0000000000000000     
  -58999.999984264257        500.00000000000000        0.0000000000000000     
  -58499.999980429246        500.00000000000000        0.0000000000000000     
  -57999.999988027957        500.00000000000000        0.0000000000000000     
  -57500.000011477321        500.00000000000000        0.0000000000000000     
  -57000.000018142207        500.00000000000000        0.0000000000000000     
  -56500.000006664413        500.00000000000000        0.0000000000000000     
  -55999.999993794139        500.00000000000023        0.0000000000000000     
  -55499.999982329187        500.00000000000040        0.0000000000000000     
  -54999.999988535492        500.00000000000045        0.0000000000000000     
  -54500.000011037700        500.00000000000080        0.0000000000000000     
  -54000.000018038365        500.00000000000091        0.0000000000000000     
  -53500.000014132354        500.00000000000091        0.0000000000000000     
  -53000.000018933766        500.00000000000085        0.0000000000000000     
  -52500.000017590617        500.00000000000063        0.0000000000000000     
  -52000.000005989081        500.00000000000142        0.0000000000000000     
  -51499.999994472128        500.00000000000603        0.0000000000000000     
  -50999.999982951718        500.00000000002109        0.0000000000000000     
  -50499.999981749876        500.00000000005980        0.0000000000000000     
  -49999.999986992683        500.00000000014626        0.0000000000000000     
  -49499.999982631438        500.00000000031866        0.0000000000000000     
  -48999.999982178902        500.00000000063170        0.0000000000000000     
  -48499.999987452567        500.00000000115165        0.0000000000000000     
  -47999.999983150097        500.00000000193995        0.0000000000000000     
  -47499.999982639572        500.00000000301731        0.0000000000000000     
  -46999.999987939766        500.00000000430833        0.0000000000000000     
  -46499.999984389535        500.00000000557623        0.0000000000000000     
  -45999.999989920594        500.00000000639238        0.0000000000000000     
  -45500.000009591851        500.00000000623623        0.0000000000000000     
  -45000.000014371071        500.00000000489905        0.0000000000000000     
  -44500.000004778492        500.00000000345977        0.0000000000000000     
  -43999.999995654442        500.00000000617013        0.0000000000000000     
  -43499.999985426264        500.00000002356558        0.0000000000000000     
  -42999.999984045346        500.00000007689579        0.0000000000000000     
  -42499.999989290394        500.00000020339564        0.0000000000000000     
  -41999.999985217401        500.00000046087996        0.0000000000000000     
  -41499.999984467562        500.00000092863178        0.0000000000000000     
  -40999.999989733682        500.00000169984361        0.0000000000000000     
  -40499.999985713890        500.00000285972970        0.0000000000000000     
  -39999.999984902533        500.00000444430617        0.0000000000000000     
  -39499.999990192635        500.00000637990814        0.0000000000000000     
  -38999.999986822331        500.00000841538167        0.0000000000000000     
  -38499.999991075601        500.00001007968984        0.0000000000000000     
  -38000.000008414863        500.00001072744641        0.0000000000000000     
  -37500.000012054341        500.00000976899611        0.0000000000000000     
  -37000.000003667446        500.00000720826563        0.0000000000000000     
  -36499.999996873048        500.00000460943426        0.0000000000000000     
  -35999.999987762960        500.00000655260118        0.0000000000000000     
  -35499.999985759714        500.00002248618478        0.0000000000000000     
  -34999.999990023498        500.00006861701621        0.0000000000000000     
  -34499.999981802961        500.00016910690658        0.0000000000000000     
  -33999.999950824844        500.00035543579094        0.0000000000000000     
  -33499.999868768042        500.00066249835533        0.0000000000000000     
  -32999.999738225917        500.00112007453617        0.0000000000000000     
  -32499.999632246498        500.00173908150111        0.0000000000000000     
  -31999.999594985729        500.00249378502286        0.0000000000000000     
  -31499.999629880091        500.00330408520551        0.0000000000000000     
  -30999.999751000909        500.00402590871528        0.0000000000000000     
  -30499.999941741386        500.00446184510201        0.0000000000000000     
  -30000.000177442467        500.00440692480379        0.0000000000000000     
  -29500.000449365474        500.00374361661676        0.0000000000000000     
  -29000.000615919544        500.00259312728326        0.0000000000000000     
  -28500.000334897737        500.00151476364312        0.0000000000000000     
  -27999.999211274408        500.00172095504581        0.0000000000000000     
  -27499.996873702465        500.00524511902881        0.0000000000000000     
  -26999.992873656043        500.01496995233623        0.0000000000000000     
  -26499.982188318227        500.03441712711611        0.0000000000000000     
  -25999.842627132424        500.06746489874007        0.0000000000000000     
  -25498.583213478763        500.11942981327280        0.0000000000000000     
  -24994.683546513494        500.19487055441192        0.0000000000000000     
  -24489.143021699110        500.28736403021850        0.0000000000000000     
  -23985.253758061543        500.37799944783484        0.0000000000000000     
  -23484.013982516444        500.44810104620086        0.0000000000000000     
  -22983.901322111560        500.48348160254557        0.0000000000000000     
  -22483.921302796400        500.47125293029552        0.0000000000000000     
  -21983.945480555398        500.40492083539561        0.0000000000000000     
  -21483.959151953328        500.29391630924721        0.0000000000000000     
  -20983.948992075606        500.17155654320749        0.0000000000000000     
  -20483.900778043240        500.10030810848747        0.0000000000000000     
  -19983.804433345944        500.17169476131170        0.0000000000000000     
  -19483.661363029678        500.49781257407585        0.0000000000000000     
  -18983.491680509895        501.19228752033598        0.0000000000000000     
  -18483.351680312935        502.33942314006651        0.0000000000000000     
  -17983.495325200423        503.91865254549100        0.0000000000000000     
  -17484.971882795053        505.13091029412800        0.0000000000000000     
  -16989.283142796663        498.24270043215603        0.0000000000000000     
  -16444.922634653591        430.25276409157459        0.0000000000000000     
  -15905.871882248628        470.82991485040935        0.0000000000000000     
  -15414.249884629402        482.31476599857700        0.0000000000000000     
  -14926.153285189614        482.85339047447320        0.0000000000000000     
  -14453.320082560098        472.54262055427085        0.0000000000000000     
  -13944.724958543957        431.90883098670696        0.0000000000000000     
  -13473.953303381910        497.07060374800602        0.0000000000000000     
  -12984.000007218590        502.89684681365577        0.0000000000000000     