  TITLE = "SEM Quad mesh" 
  VARIABLES = "x", "y", "z", "material ID"
 ZONE I=           3 ,J=           3 , F=POINT
 -0.72472E+05  0.15170E+04  0.00000E+00 1
 -0.71220E+05  0.15156E+04  0.00000E+00 1
 -0.69968E+05  0.15143E+04  0.00000E+00 1
 -0.72474E+05  0.22681E+04  0.00000E+00 1
 -0.71222E+05  0.22666E+04  0.00000E+00 1
 -0.69971E+05  0.22651E+04  0.00000E+00 1
 -0.72476E+05  0.30192E+04  0.00000E+00 1
 -0.71225E+05  0.30175E+04  0.00000E+00 1
 -0.69974E+05  0.30159E+04  0.00000E+00 1
 ZONE I=           3 ,J=           3 , F=POINT
 -0.69968E+05  0.15143E+04  0.00000E+00 1
 -0.68726E+05  0.15106E+04  0.00000E+00 1
 -0.67484E+05  0.15070E+04  0.00000E+00 1
 -0.69971E+05  0.22651E+04  0.00000E+00 1
 -0.68728E+05  0.22613E+04  0.00000E+00 1
 -0.67484E+05  0.22575E+04  0.00000E+00 1
 -0.69974E+05  0.30159E+04  0.00000E+00 1
 -0.68729E+05  0.30119E+04  0.00000E+00 1
 -0.67485E+05  0.30080E+04  0.00000E+00 1
 ZONE I=           3 ,J=           3 , F=POINT
 -0.67484E+05  0.15070E+04  0.00000E+00 1
 -0.66240E+05  0.15045E+04  0.00000E+00 1
 -0.64996E+05  0.15021E+04  0.00000E+00 1
 -0.67484E+05  0.22575E+04  0.00000E+00 1
 -0.66240E+05  0.22549E+04  0.00000E+00 1
 -0.64996E+05  0.22522E+04  0.00000E+00 1
 -0.67485E+05  0.30080E+04  0.00000E+00 1
 -0.66240E+05  0.30052E+04  0.00000E+00 1
 -0.64995E+05  0.30024E+04  0.00000E+00 1
 ZONE I=           3 ,J=           3 , F=POINT
 -0.64996E+05  0.15021E+04  0.00000E+00 1
 -0.63748E+05  0.15012E+04  0.00000E+00 1
 -0.62499E+05  0.15004E+04  0.00000E+00 1
 -0.64996E+05  0.22522E+04  0.00000E+00 1
 -0.63747E+05  0.22513E+04  0.00000E+00 1
 -0.62499E+05  0.22504E+04  0.00000E+00 1
 -0.64995E+05  0.30024E+04  0.00000E+00 1
 -0.63747E+05  0.30015E+04  0.00000E+00 1
 -0.62499E+05  0.30005E+04  0.00000E+00 1
 ZONE I=           3 ,J=           3 , F=POINT
 -0.62499E+05  0.15004E+04  0.00000E+00 1
 -0.61250E+05  0.15002E+04  0.00000E+00 1
 -0.60000E+05  0.15000E+04  0.00000E+00 1
 -0.62499E+05  0.22504E+04  0.00000E+00 1
 -0.61250E+05  0.22502E+04  0.00000E+00 1
 -0.60000E+05  0.22501E+04  0.00000E+00 1
 -0.62499E+05  0.30005E+04  0.00000E+00 1
 -0.61249E+05  0.30003E+04  0.00000E+00 1
 -0.60000E+05  0.30001E+04  0.00000E+00 1
 ZONE I=           3 ,J=           3 , F=POINT
 -0.60000E+05  0.15000E+04  0.00000E+00 1
 -0.58750E+05  0.15000E+04  0.00000E+00 1
 -0.57500E+05  0.15000E+04  0.00000E+00 1
 -0.60000E+05  0.22501E+04  0.00000E+00 1
 -0.58750E+05  0.22500E+04  0.00000E+00 1
 -0.57500E+05  0.22500E+04  0.00000E+00 1
 -0.60000E+05  0.30001E+04  0.00000E+00 1
 -0.58750E+05  0.30000E+04  0.00000E+00 1
 -0.57500E+05  0.30000E+04  0.00000E+00 1
 ZONE I=           3 ,J=           3 , F=POINT
 -0.57500E+05  0.15000E+04  0.00000E+00 1
 -0.56250E+05  0.15000E+04  0.00000E+00 1
 -0.55000E+05  0.15000E+04  0.00000E+00 1
 -0.57500E+05  0.22500E+04  0.00000E+00 1
 -0.56250E+05  0.22500E+04  0.00000E+00 1
 -0.55000E+05  0.22500E+04  0.00000E+00 1
 -0.57500E+05  0.30000E+04  0.00000E+00 1
 -0.56250E+05  0.30000E+04  0.00000E+00 1
 -0.55000E+05  0.30000E+04  0.00000E+00 1
 ZONE I=           3 ,J=           3 , F=POINT
 -0.55000E+05  0.15000E+04  0.00000E+00 1
 -0.53750E+05  0.15000E+04  0.00000E+00 1
 -0.52500E+05  0.15000E+04  0.00000E+00 1
 -0.55000E+05  0.22500E+04  0.00000E+00 1
 -0.53750E+05  0.22500E+04  0.00000E+00 1
 -0.52500E+05  0.22500E+04  0.00000E+00 1
 -0.55000E+05  0.30000E+04  0.00000E+00 1
 -0.53750E+05  0.30000E+04  0.00000E+00 1
 -0.52500E+05  0.30000E+04  0.00000E+00 1
 ZONE I=           3 ,J=           3 , F=POINT
 -0.52500E+05  0.15000E+04  0.00000E+00 1
 -0.51250E+05  0.15000E+04  0.00000E+00 1
 -0.50000E+05  0.15000E+04  0.00000E+00 1
 -0.52500E+05  0.22500E+04  0.00000E+00 1
 -0.51250E+05  0.22500E+04  0.00000E+00 1
 -0.50000E+05  0.22500E+04  0.00000E+00 1
 -0.52500E+05  0.30000E+04  0.00000E+00 1
 -0.51250E+05  0.30000E+04  0.00000E+00 1
 -0.50000E+05  0.30000E+04  0.00000E+00 1
 ZONE I=           3 ,J=           3 , F=POINT
 -0.50000E+05  0.15000E+04  0.00000E+00 1
 -0.48750E+05  0.15000E+04  0.00000E+00 1
 -0.47500E+05  0.15000E+04  0.00000E+00 1
 -0.50000E+05  0.22500E+04  0.00000E+00 1
 -0.48750E+05  0.22500E+04  0.00000E+00 1
 -0.47500E+05  0.22500E+04  0.00000E+00 1
 -0.50000E+05  0.30000E+04  0.00000E+00 1
 -0.48750E+05  0.30000E+04  0.00000E+00 1
 -0.47500E+05  0.30000E+04  0.00000E+00 1
 ZONE I=           3 ,J=           3 , F=POINT
 -0.47500E+05  0.15000E+04  0.00000E+00 1
 -0.46250E+05  0.15000E+04  0.00000E+00 1
 -0.45000E+05  0.15000E+04  0.00000E+00 1
 -0.47500E+05  0.22500E+04  0.00000E+00 1
 -0.46250E+05  0.22500E+04  0.00000E+00 1
 -0.45000E+05  0.22500E+04  0.00000E+00 1
 -0.47500E+05  0.30000E+04  0.00000E+00 1
 -0.46250E+05  0.30000E+04  0.00000E+00 1
 -0.45000E+05  0.30000E+04  0.00000E+00 1
 ZONE I=           3 ,J=           3 , F=POINT
 -0.45000E+05  0.15000E+04  0.00000E+00 1
 -0.43750E+05  0.15000E+04  0.00000E+00 1
 -0.42500E+05  0.15000E+04  0.00000E+00 1
 -0.45000E+05  0.22500E+04  0.00000E+00 1
 -0.43750E+05  0.22500E+04  0.00000E+00 1
 -0.42500E+05  0.22500E+04  0.00000E+00 1
 -0.45000E+05  0.30000E+04  0.00000E+00 1
 -0.43750E+05  0.30000E+04  0.00000E+00 1
 -0.42500E+05  0.30000E+04  0.00000E+00 1
 ZONE I=           3 ,J=           3 , F=POINT
 -0.42500E+05  0.15000E+04  0.00000E+00 1
 -0.41250E+05  0.15000E+04  0.00000E+00 1
 -0.40000E+05  0.15000E+04  0.00000E+00 1
 -0.42500E+05  0.22500E+04  0.00000E+00 1
 -0.41250E+05  0.22500E+04  0.00000E+00 1
 -0.40000E+05  0.22500E+04  0.00000E+00 1
 -0.42500E+05  0.30000E+04  0.00000E+00 1
 -0.41250E+05  0.30000E+04  0.00000E+00 1
 -0.40000E+05  0.30000E+04  0.00000E+00 1
 ZONE I=           3 ,J=           3 , F=POINT
 -0.40000E+05  0.15000E+04  0.00000E+00 1
 -0.38750E+05  0.15000E+04  0.00000E+00 1
 -0.37500E+05  0.15000E+04  0.00000E+00 1
 -0.40000E+05  0.22500E+04  0.00000E+00 1
 -0.38750E+05  0.22500E+04  0.00000E+00 1
 -0.37500E+05  0.22500E+04  0.00000E+00 1
 -0.40000E+05  0.30000E+04  0.00000E+00 1
 -0.38750E+05  0.30000E+04  0.00000E+00 1
 -0.37500E+05  0.30000E+04  0.00000E+00 1
 ZONE I=           3 ,J=           3 , F=POINT
 -0.37500E+05  0.15000E+04  0.00000E+00 1
 -0.36250E+05  0.15000E+04  0.00000E+00 1
 -0.35000E+05  0.15000E+04  0.00000E+00 1
 -0.37500E+05  0.22500E+04  0.00000E+00 1
 -0.36250E+05  0.22500E+04  0.00000E+00 1
 -0.35000E+05  0.22500E+04  0.00000E+00 1
 -0.37500E+05  0.30000E+04  0.00000E+00 1
 -0.36250E+05  0.30000E+04  0.00000E+00 1
 -0.35000E+05  0.30000E+04  0.00000E+00 1
 ZONE I=           3 ,J=           3 , F=POINT
 -0.35000E+05  0.15000E+04  0.00000E+00 1
 -0.33750E+05  0.15000E+04  0.00000E+00 1
 -0.32500E+05  0.15000E+04  0.00000E+00 1
 -0.35000E+05  0.22500E+04  0.00000E+00 1
 -0.33750E+05  0.22500E+04  0.00000E+00 1
 -0.32500E+05  0.22500E+04  0.00000E+00 1
 -0.35000E+05  0.30000E+04  0.00000E+00 1
 -0.33750E+05  0.30000E+04  0.00000E+00 1
 -0.32500E+05  0.30000E+04  0.00000E+00 1
 ZONE I=           3 ,J=           3 , F=POINT
 -0.32500E+05  0.15000E+04  0.00000E+00 1
 -0.31250E+05  0.15001E+04  0.00000E+00 1
 -0.30000E+05  0.15001E+04  0.00000E+00 1
 -0.32500E+05  0.22500E+04  0.00000E+00 1
 -0.31250E+05  0.22501E+04  0.00000E+00 1
 -0.30000E+05  0.22501E+04  0.00000E+00 1
 -0.32500E+05  0.30000E+04  0.00000E+00 1
 -0.31250E+05  0.30000E+04  0.00000E+00 1
 -0.30000E+05  0.30001E+04  0.00000E+00 1
 ZONE I=           3 ,J=           3 , F=POINT
 -0.30000E+05  0.15001E+04  0.00000E+00 1
 -0.28750E+05  0.15003E+04  0.00000E+00 1
 -0.27500E+05  0.15005E+04  0.00000E+00 1
 -0.30000E+05  0.22501E+04  0.00000E+00 1
 -0.28750E+05  0.22502E+04  0.00000E+00 1
 -0.27500E+05  0.22504E+04  0.00000E+00 1
 -0.30000E+05  0.30001E+04  0.00000E+00 1
 -0.28750E+05  0.30002E+04  0.00000E+00 1
 -0.27500E+05  0.30003E+04  0.00000E+00 1
 ZONE I=           3 ,J=           3 , F=POINT
 -0.27500E+05  0.15005E+04  0.00000E+00 1
 -0.26249E+05  0.15012E+04  0.00000E+00 1
 -0.24999E+05  0.15018E+04  0.00000E+00 1
 -0.27500E+05  0.22504E+04  0.00000E+00 1
 -0.26249E+05  0.22509E+04  0.00000E+00 1
 -0.24999E+05  0.22513E+04  0.00000E+00 1
 -0.27500E+05  0.30003E+04  0.00000E+00 1
 -0.26250E+05  0.30005E+04  0.00000E+00 1
 -0.25000E+05  0.30008E+04  0.00000E+00 1
 ZONE I=           3 ,J=           3 , F=POINT
 -0.24999E+05  0.15018E+04  0.00000E+00 1
 -0.23748E+05  0.15031E+04  0.00000E+00 1
 -0.22498E+05  0.15043E+04  0.00000E+00 1
 -0.24999E+05  0.22513E+04  0.00000E+00 1
 -0.23749E+05  0.22524E+04  0.00000E+00 1
 -0.22498E+05  0.22534E+04  0.00000E+00 1
 -0.25000E+05  0.30008E+04  0.00000E+00 1
 -0.23749E+05  0.30017E+04  0.00000E+00 1
 -0.22498E+05  0.30025E+04  0.00000E+00 1
 ZONE I=           3 ,J=           3 , F=POINT
 -0.22498E+05  0.15043E+04  0.00000E+00 1
 -0.21243E+05  0.15097E+04  0.00000E+00 1
 -0.19989E+05  0.15152E+04  0.00000E+00 1
 -0.22498E+05  0.22534E+04  0.00000E+00 1
 -0.21245E+05  0.22573E+04  0.00000E+00 1
 -0.19993E+05  0.22612E+04  0.00000E+00 1
 -0.22498E+05  0.30025E+04  0.00000E+00 1
 -0.21248E+05  0.30049E+04  0.00000E+00 1
 -0.19997E+05  0.30072E+04  0.00000E+00 1
 ZONE I=           3 ,J=           3 , F=POINT
 -0.19989E+05  0.15152E+04  0.00000E+00 1
 -0.18738E+05  0.15294E+04  0.00000E+00 1
 -0.17486E+05  0.15435E+04  0.00000E+00 1
 -0.19993E+05  0.22612E+04  0.00000E+00 1
 -0.18743E+05  0.22698E+04  0.00000E+00 1
 -0.17493E+05  0.22784E+04  0.00000E+00 1
 -0.19997E+05  0.30072E+04  0.00000E+00 1
 -0.18748E+05  0.30102E+04  0.00000E+00 1
 -0.17499E+05  0.30132E+04  0.00000E+00 1
 ZONE I=           3 ,J=           3 , F=POINT
 -0.17486E+05  0.15435E+04  0.00000E+00 1
 -0.16259E+05  0.15513E+04  0.00000E+00 1
 -0.15031E+05  0.15590E+04  0.00000E+00 1
 -0.17493E+05  0.22784E+04  0.00000E+00 1
 -0.16259E+05  0.22808E+04  0.00000E+00 1
 -0.15025E+05  0.22831E+04  0.00000E+00 1
 -0.17499E+05  0.30132E+04  0.00000E+00 1
 -0.16259E+05  0.30102E+04  0.00000E+00 1
 -0.15019E+05  0.30072E+04  0.00000E+00 1
 ZONE I=           3 ,J=           3 , F=POINT
 -0.15031E+05  0.15590E+04  0.00000E+00 1
 -0.13850E+05  0.15554E+04  0.00000E+00 1
 -0.12669E+05  0.15517E+04  0.00000E+00 1
 -0.15025E+05  0.22831E+04  0.00000E+00 1
 -0.13826E+05  0.22652E+04  0.00000E+00 1
 -0.12627E+05  0.22472E+04  0.00000E+00 1
 -0.15019E+05  0.30072E+04  0.00000E+00 1
 -0.13802E+05  0.29750E+04  0.00000E+00 1
 -0.12585E+05  0.29428E+04  0.00000E+00 1
 ZONE I=           3 ,J=           3 , F=POINT
 -0.12669E+05  0.15517E+04  0.00000E+00 1
 -0.11809E+05  0.15418E+04  0.00000E+00 1
 -0.10949E+05  0.15320E+04  0.00000E+00 1
 -0.12627E+05  0.22472E+04  0.00000E+00 1
 -0.11549E+05  0.21519E+04  0.00000E+00 1
 -0.10471E+05  0.20566E+04  0.00000E+00 1
 -0.12585E+05  0.29428E+04  0.00000E+00 1
 -0.11289E+05  0.27620E+04  0.00000E+00 1
 -0.99938E+04  0.25812E+04  0.00000E+00 1
 ZONE I=           3 ,J=           3 , F=POINT
 -0.33080E+04  0.13149E+04  0.00000E+00 1
 -0.30309E+04  0.14253E+04  0.00000E+00 1
 -0.27538E+04  0.15356E+04  0.00000E+00 1
 -0.35913E+04  0.14486E+04  0.00000E+00 1
 -0.31608E+04  0.15928E+04  0.00000E+00 1
 -0.27302E+04  0.17370E+04  0.00000E+00 1
 -0.38747E+04  0.15823E+04  0.00000E+00 1
 -0.32907E+04  0.17603E+04  0.00000E+00 1
 -0.27067E+04  0.19383E+04  0.00000E+00 1
 ZONE I=           3 ,J=           3 , F=POINT
 -0.38747E+04  0.15823E+04  0.00000E+00 1
 -0.32907E+04  0.17603E+04  0.00000E+00 1
 -0.27067E+04  0.19383E+04  0.00000E+00 1
 -0.40573E+04  0.19389E+04  0.00000E+00 1
 -0.33075E+04  0.21178E+04  0.00000E+00 1
 -0.25578E+04  0.22968E+04  0.00000E+00 1
 -0.42399E+04  0.22955E+04  0.00000E+00 1
 -0.33244E+04  0.24754E+04  0.00000E+00 1
 -0.24089E+04  0.26552E+04  0.00000E+00 1
 ZONE I=           3 ,J=           3 , F=POINT
  0.31400E+04  0.13089E+04  0.00000E+00 1
  0.35168E+04  0.12944E+04  0.00000E+00 1
  0.38936E+04  0.12799E+04  0.00000E+00 1
  0.30277E+04  0.15337E+04  0.00000E+00 1
  0.33973E+04  0.15521E+04  0.00000E+00 1
  0.37668E+04  0.15705E+04  0.00000E+00 1
  0.29155E+04  0.17585E+04  0.00000E+00 1
  0.32778E+04  0.18098E+04  0.00000E+00 1
  0.36400E+04  0.18612E+04  0.00000E+00 1
 ZONE I=           3 ,J=           3 , F=POINT
  0.38936E+04  0.12799E+04  0.00000E+00 1
  0.43086E+04  0.13284E+04  0.00000E+00 1
  0.47236E+04  0.13769E+04  0.00000E+00 1
  0.37668E+04  0.15705E+04  0.00000E+00 1
  0.41555E+04  0.16663E+04  0.00000E+00 1
  0.45442E+04  0.17621E+04  0.00000E+00 1
  0.36400E+04  0.18612E+04  0.00000E+00 1
  0.40024E+04  0.20043E+04  0.00000E+00 1
  0.43648E+04  0.21474E+04  0.00000E+00 1
 ZONE I=           3 ,J=           3 , F=POINT
  0.29155E+04  0.17585E+04  0.00000E+00 1
  0.32778E+04  0.18098E+04  0.00000E+00 1
  0.36400E+04  0.18612E+04  0.00000E+00 1
  0.27495E+04  0.21214E+04  0.00000E+00 1
  0.33759E+04  0.20628E+04  0.00000E+00 1
  0.40024E+04  0.20043E+04  0.00000E+00 1
  0.25834E+04  0.24842E+04  0.00000E+00 1
  0.34741E+04  0.23158E+04  0.00000E+00 1
  0.43648E+04  0.21474E+04  0.00000E+00 1
 ZONE I=           3 ,J=           3 , F=POINT
  0.11405E+05  0.13558E+04  0.00000E+00 1
  0.12147E+05  0.14129E+04  0.00000E+00 1
  0.12890E+05  0.14699E+04  0.00000E+00 1
  0.10868E+05  0.19086E+04  0.00000E+00 1
  0.11833E+05  0.20462E+04  0.00000E+00 1
  0.12799E+05  0.21837E+04  0.00000E+00 1
  0.10331E+05  0.24614E+04  0.00000E+00 1
  0.11520E+05  0.26795E+04  0.00000E+00 1
  0.12708E+05  0.28976E+04  0.00000E+00 1
 ZONE I=           3 ,J=           3 , F=POINT
  0.12890E+05  0.14699E+04  0.00000E+00 1
  0.13980E+05  0.15072E+04  0.00000E+00 1
  0.15070E+05  0.15444E+04  0.00000E+00 1
  0.12799E+05  0.21837E+04  0.00000E+00 1
  0.13931E+05  0.22265E+04  0.00000E+00 1
  0.15063E+05  0.22692E+04  0.00000E+00 1
  0.12708E+05  0.28976E+04  0.00000E+00 1
  0.13882E+05  0.29458E+04  0.00000E+00 1
  0.15055E+05  0.29940E+04  0.00000E+00 1
 ZONE I=           3 ,J=           3 , F=POINT
  0.15070E+05  0.15444E+04  0.00000E+00 1
  0.16281E+05  0.15429E+04  0.00000E+00 1
  0.17492E+05  0.15414E+04  0.00000E+00 1
  0.15063E+05  0.22692E+04  0.00000E+00 1
  0.16281E+05  0.22727E+04  0.00000E+00 1
  0.17499E+05  0.22761E+04  0.00000E+00 1
  0.15055E+05  0.29940E+04  0.00000E+00 1
  0.16280E+05  0.30024E+04  0.00000E+00 1
  0.17506E+05  0.30109E+04  0.00000E+00 1
 ZONE I=           3 ,J=           3 , F=POINT
  0.17492E+05  0.15414E+04  0.00000E+00 1
  0.18741E+05  0.15281E+04  0.00000E+00 1
  0.19990E+05  0.15149E+04  0.00000E+00 1
  0.17499E+05  0.22761E+04  0.00000E+00 1
  0.18746E+05  0.22685E+04  0.00000E+00 1
  0.19994E+05  0.22609E+04  0.00000E+00 1
  0.17506E+05  0.30109E+04  0.00000E+00 1
  0.18752E+05  0.30089E+04  0.00000E+00 1
  0.19997E+05  0.30069E+04  0.00000E+00 1
 ZONE I=           3 ,J=           3 , F=POINT
  0.19990E+05  0.15149E+04  0.00000E+00 1
  0.21244E+05  0.15096E+04  0.00000E+00 1
  0.22498E+05  0.15043E+04  0.00000E+00 1
  0.19994E+05  0.22609E+04  0.00000E+00 1
  0.21246E+05  0.22572E+04  0.00000E+00 1
  0.22498E+05  0.22534E+04  0.00000E+00 1
  0.19997E+05  0.30069E+04  0.00000E+00 1
  0.21248E+05  0.30047E+04  0.00000E+00 1
  0.22498E+05  0.30025E+04  0.00000E+00 1
 ZONE I=           3 ,J=           3 , F=POINT
  0.22498E+05  0.15043E+04  0.00000E+00 1
  0.23748E+05  0.15030E+04  0.00000E+00 1
  0.24999E+05  0.15018E+04  0.00000E+00 1
  0.22498E+05  0.22534E+04  0.00000E+00 1
  0.23749E+05  0.22523E+04  0.00000E+00 1
  0.24999E+05  0.22513E+04  0.00000E+00 1
  0.22498E+05  0.30025E+04  0.00000E+00 1
  0.23749E+05  0.30017E+04  0.00000E+00 1
  0.25000E+05  0.30008E+04  0.00000E+00 1
 ZONE I=           3 ,J=           3 , F=POINT
  0.24999E+05  0.15018E+04  0.00000E+00 1
  0.26249E+05  0.15012E+04  0.00000E+00 1
  0.27500E+05  0.15005E+04  0.00000E+00 1
  0.24999E+05  0.22513E+04  0.00000E+00 1
  0.26249E+05  0.22509E+04  0.00000E+00 1
  0.27500E+05  0.22504E+04  0.00000E+00 1
  0.25000E+05  0.30008E+04  0.00000E+00 1
  0.26250E+05  0.30005E+04  0.00000E+00 1
  0.27500E+05  0.30003E+04  0.00000E+00 1
 ZONE I=           3 ,J=           3 , F=POINT
  0.27500E+05  0.15005E+04  0.00000E+00 1
  0.28750E+05  0.15003E+04  0.00000E+00 1
  0.30000E+05  0.15001E+04  0.00000E+00 1
  0.27500E+05  0.22504E+04  0.00000E+00 1
  0.28750E+05  0.22502E+04  0.00000E+00 1
  0.30000E+05  0.22501E+04  0.00000E+00 1
  0.27500E+05  0.30003E+04  0.00000E+00 1
  0.28750E+05  0.30002E+04  0.00000E+00 1
  0.30000E+05  0.30001E+04  0.00000E+00 1
 ZONE I=           3 ,J=           3 , F=POINT
  0.30000E+05  0.15001E+04  0.00000E+00 1
  0.31250E+05  0.15001E+04  0.00000E+00 1
  0.32500E+05  0.15000E+04  0.00000E+00 1
  0.30000E+05  0.22501E+04  0.00000E+00 1
  0.31250E+05  0.22501E+04  0.00000E+00 1
  0.32500E+05  0.22500E+04  0.00000E+00 1
  0.30000E+05  0.30001E+04  0.00000E+00 1
  0.31250E+05  0.30000E+04  0.00000E+00 1
  0.32500E+05  0.30000E+04  0.00000E+00 1
 ZONE I=           3 ,J=           3 , F=POINT
  0.32500E+05  0.15000E+04  0.00000E+00 1
  0.33750E+05  0.15000E+04  0.00000E+00 1
  0.35000E+05  0.15000E+04  0.00000E+00 1
  0.32500E+05  0.22500E+04  0.00000E+00 1
  0.33750E+05  0.22500E+04  0.00000E+00 1
  0.35000E+05  0.22500E+04  0.00000E+00 1
  0.32500E+05  0.30000E+04  0.00000E+00 1
  0.33750E+05  0.30000E+04  0.00000E+00 1
  0.35000E+05  0.30000E+04  0.00000E+00 1
 ZONE I=           3 ,J=           3 , F=POINT
  0.35000E+05  0.15000E+04  0.00000E+00 1
  0.36250E+05  0.15000E+04  0.00000E+00 1
  0.37500E+05  0.15000E+04  0.00000E+00 1
  0.35000E+05  0.22500E+04  0.00000E+00 1
  0.36250E+05  0.22500E+04  0.00000E+00 1
  0.37500E+05  0.22500E+04  0.00000E+00 1
  0.35000E+05  0.30000E+04  0.00000E+00 1
  0.36250E+05  0.30000E+04  0.00000E+00 1
  0.37500E+05  0.30000E+04  0.00000E+00 1
 ZONE I=           3 ,J=           3 , F=POINT
  0.37500E+05  0.15000E+04  0.00000E+00 1
  0.38750E+05  0.15000E+04  0.00000E+00 1
  0.40000E+05  0.15000E+04  0.00000E+00 1
  0.37500E+05  0.22500E+04  0.00000E+00 1
  0.38750E+05  0.22500E+04  0.00000E+00 1
  0.40000E+05  0.22500E+04  0.00000E+00 1
  0.37500E+05  0.30000E+04  0.00000E+00 1
  0.38750E+05  0.30000E+04  0.00000E+00 1
  0.40000E+05  0.30000E+04  0.00000E+00 1
 ZONE I=           3 ,J=           3 , F=POINT
  0.40000E+05  0.15000E+04  0.00000E+00 1
  0.41250E+05  0.15000E+04  0.00000E+00 1
  0.42500E+05  0.15000E+04  0.00000E+00 1
  0.40000E+05  0.22500E+04  0.00000E+00 1
  0.41250E+05  0.22500E+04  0.00000E+00 1
  0.42500E+05  0.22500E+04  0.00000E+00 1
  0.40000E+05  0.30000E+04  0.00000E+00 1
  0.41250E+05  0.30000E+04  0.00000E+00 1
  0.42500E+05  0.30000E+04  0.00000E+00 1
 ZONE I=           3 ,J=           3 , F=POINT
  0.42500E+05  0.15000E+04  0.00000E+00 1
  0.43750E+05  0.15000E+04  0.00000E+00 1
  0.45000E+05  0.15000E+04  0.00000E+00 1
  0.42500E+05  0.22500E+04  0.00000E+00 1
  0.43750E+05  0.22500E+04  0.00000E+00 1
  0.45000E+05  0.22500E+04  0.00000E+00 1
  0.42500E+05  0.30000E+04  0.00000E+00 1
  0.43750E+05  0.30000E+04  0.00000E+00 1
  0.45000E+05  0.30000E+04  0.00000E+00 1
 ZONE I=           3 ,J=           3 , F=POINT
  0.45000E+05  0.15000E+04  0.00000E+00 1
  0.46250E+05  0.15000E+04  0.00000E+00 1
  0.47500E+05  0.15000E+04  0.00000E+00 1
  0.45000E+05  0.22500E+04  0.00000E+00 1
  0.46250E+05  0.22500E+04  0.00000E+00 1
  0.47500E+05  0.22500E+04  0.00000E+00 1
  0.45000E+05  0.30000E+04  0.00000E+00 1
  0.46250E+05  0.30000E+04  0.00000E+00 1
  0.47500E+05  0.30000E+04  0.00000E+00 1
 ZONE I=           3 ,J=           3 , F=POINT
  0.47500E+05  0.15000E+04  0.00000E+00 1
  0.48750E+05  0.15000E+04  0.00000E+00 1
  0.50000E+05  0.15000E+04  0.00000E+00 1
  0.47500E+05  0.22500E+04  0.00000E+00 1
  0.48750E+05  0.22500E+04  0.00000E+00 1
  0.50000E+05  0.22500E+04  0.00000E+00 1
  0.47500E+05  0.30000E+04  0.00000E+00 1
  0.48750E+05  0.30000E+04  0.00000E+00 1
  0.50000E+05  0.30000E+04  0.00000E+00 1
 ZONE I=           3 ,J=           3 , F=POINT
  0.50000E+05  0.15000E+04  0.00000E+00 1
  0.51250E+05  0.15000E+04  0.00000E+00 1
  0.52500E+05  0.15000E+04  0.00000E+00 1
  0.50000E+05  0.22500E+04  0.00000E+00 1
  0.51250E+05  0.22500E+04  0.00000E+00 1
  0.52500E+05  0.22500E+04  0.00000E+00 1
  0.50000E+05  0.30000E+04  0.00000E+00 1
  0.51250E+05  0.30000E+04  0.00000E+00 1
  0.52500E+05  0.30000E+04  0.00000E+00 1
 ZONE I=           3 ,J=           3 , F=POINT
  0.52500E+05  0.15000E+04  0.00000E+00 1
  0.53750E+05  0.15000E+04  0.00000E+00 1
  0.55000E+05  0.15000E+04  0.00000E+00 1
  0.52500E+05  0.22500E+04  0.00000E+00 1
  0.53750E+05  0.22500E+04  0.00000E+00 1
  0.55000E+05  0.22500E+04  0.00000E+00 1
  0.52500E+05  0.30000E+04  0.00000E+00 1
  0.53750E+05  0.30000E+04  0.00000E+00 1
  0.55000E+05  0.30000E+04  0.00000E+00 1
 ZONE I=           3 ,J=           3 , F=POINT
  0.55000E+05  0.15000E+04  0.00000E+00 1
  0.56250E+05  0.15000E+04  0.00000E+00 1
  0.57500E+05  0.15000E+04  0.00000E+00 1
  0.55000E+05  0.22500E+04  0.00000E+00 1
  0.56250E+05  0.22500E+04  0.00000E+00 1
  0.57500E+05  0.22500E+04  0.00000E+00 1
  0.55000E+05  0.30000E+04  0.00000E+00 1
  0.56250E+05  0.30000E+04  0.00000E+00 1
  0.57500E+05  0.30000E+04  0.00000E+00 1
 ZONE I=           3 ,J=           3 , F=POINT
  0.57500E+05  0.15000E+04  0.00000E+00 1
  0.58750E+05  0.15000E+04  0.00000E+00 1
  0.60000E+05  0.15000E+04  0.00000E+00 1
  0.57500E+05  0.22500E+04  0.00000E+00 1
  0.58750E+05  0.22500E+04  0.00000E+00 1
  0.60000E+05  0.22501E+04  0.00000E+00 1
  0.57500E+05  0.30000E+04  0.00000E+00 1
  0.58750E+05  0.30000E+04  0.00000E+00 1
  0.60000E+05  0.30001E+04  0.00000E+00 1
 ZONE I=           3 ,J=           3 , F=POINT
  0.60000E+05  0.15000E+04  0.00000E+00 1
  0.61250E+05  0.15002E+04  0.00000E+00 1
  0.62499E+05  0.15004E+04  0.00000E+00 1
  0.60000E+05  0.22501E+04  0.00000E+00 1
  0.61250E+05  0.22502E+04  0.00000E+00 1
  0.62499E+05  0.22504E+04  0.00000E+00 1
  0.60000E+05  0.30001E+04  0.00000E+00 1
  0.61249E+05  0.30003E+04  0.00000E+00 1
  0.62499E+05  0.30005E+04  0.00000E+00 1
 ZONE I=           3 ,J=           3 , F=POINT
  0.62499E+05  0.15004E+04  0.00000E+00 1
  0.63748E+05  0.15012E+04  0.00000E+00 1
  0.64996E+05  0.15021E+04  0.00000E+00 1
  0.62499E+05  0.22504E+04  0.00000E+00 1
  0.63747E+05  0.22513E+04  0.00000E+00 1
  0.64996E+05  0.22522E+04  0.00000E+00 1
  0.62499E+05  0.30005E+04  0.00000E+00 1
  0.63747E+05  0.30015E+04  0.00000E+00 1
  0.64995E+05  0.30024E+04  0.00000E+00 1
 ZONE I=           3 ,J=           3 , F=POINT
  0.64996E+05  0.15021E+04  0.00000E+00 1
  0.66240E+05  0.15045E+04  0.00000E+00 1
  0.67484E+05  0.15070E+04  0.00000E+00 1
  0.64996E+05  0.22522E+04  0.00000E+00 1
  0.66240E+05  0.22549E+04  0.00000E+00 1
  0.67484E+05  0.22575E+04  0.00000E+00 1
  0.64995E+05  0.30024E+04  0.00000E+00 1
  0.66240E+05  0.30052E+04  0.00000E+00 1
  0.67485E+05  0.30080E+04  0.00000E+00 1
 ZONE I=           3 ,J=           3 , F=POINT
  0.67484E+05  0.15070E+04  0.00000E+00 1
  0.68726E+05  0.15106E+04  0.00000E+00 1
  0.69968E+05  0.15143E+04  0.00000E+00 1
  0.67484E+05  0.22575E+04  0.00000E+00 1
  0.68728E+05  0.22613E+04  0.00000E+00 1
  0.69971E+05  0.22651E+04  0.00000E+00 1
  0.67485E+05  0.30080E+04  0.00000E+00 1
  0.68729E+05  0.30119E+04  0.00000E+00 1
  0.69974E+05  0.30159E+04  0.00000E+00 1
 ZONE I=           3 ,J=           3 , F=POINT
  0.69968E+05  0.15143E+04  0.00000E+00 1
  0.71220E+05  0.15156E+04  0.00000E+00 1
  0.72472E+05  0.15170E+04  0.00000E+00 1
  0.69971E+05  0.22651E+04  0.00000E+00 1
  0.71222E+05  0.22666E+04  0.00000E+00 1
  0.72474E+05  0.22681E+04  0.00000E+00 1
  0.69974E+05  0.30159E+04  0.00000E+00 1
  0.71225E+05  0.30175E+04  0.00000E+00 1
  0.72476E+05  0.30192E+04  0.00000E+00 1
 ZONE I=           3 ,J=           3 , F=POINT
 -0.72476E+05  0.30192E+04  0.00000E+00 1
 -0.71225E+05  0.30175E+04  0.00000E+00 1
 -0.69974E+05  0.30159E+04  0.00000E+00 1
 -0.72482E+05  0.37645E+04  0.00000E+00 1
 -0.71231E+05  0.37634E+04  0.00000E+00 1
 -0.69980E+05  0.37623E+04  0.00000E+00 1
 -0.72488E+05  0.45099E+04  0.00000E+00 1
 -0.71237E+05  0.45093E+04  0.00000E+00 1
 -0.69987E+05  0.45088E+04  0.00000E+00 1
 ZONE I=           3 ,J=           3 , F=POINT
 -0.72488E+05  0.45099E+04  0.00000E+00 1
 -0.71237E+05  0.45093E+04  0.00000E+00 1
 -0.69987E+05  0.45088E+04  0.00000E+00 1
 -0.72492E+05  0.52562E+04  0.00000E+00 1
 -0.71242E+05  0.52560E+04  0.00000E+00 1
 -0.69991E+05  0.52558E+04  0.00000E+00 1
 -0.72497E+05  0.60025E+04  0.00000E+00 1
 -0.71246E+05  0.60027E+04  0.00000E+00 1
 -0.69996E+05  0.60028E+04  0.00000E+00 1
 ZONE I=           3 ,J=           3 , F=POINT
 -0.69974E+05  0.30159E+04  0.00000E+00 1
 -0.68729E+05  0.30119E+04  0.00000E+00 1
 -0.67485E+05  0.30080E+04  0.00000E+00 1
 -0.69980E+05  0.37623E+04  0.00000E+00 1
 -0.68734E+05  0.37593E+04  0.00000E+00 1
 -0.67489E+05  0.37563E+04  0.00000E+00 1
 -0.69987E+05  0.45088E+04  0.00000E+00 1
 -0.68739E+05  0.45067E+04  0.00000E+00 1
 -0.67492E+05  0.45046E+04  0.00000E+00 1
 ZONE I=           3 ,J=           3 , F=POINT
 -0.67485E+05  0.30080E+04  0.00000E+00 1
 -0.66240E+05  0.30052E+04  0.00000E+00 1
 -0.64995E+05  0.30024E+04  0.00000E+00 1
 -0.67489E+05  0.37563E+04  0.00000E+00 1
 -0.66243E+05  0.37541E+04  0.00000E+00 1
 -0.64996E+05  0.37520E+04  0.00000E+00 1
 -0.67492E+05  0.45046E+04  0.00000E+00 1
 -0.66245E+05  0.45031E+04  0.00000E+00 1
 -0.64997E+05  0.45015E+04  0.00000E+00 1
 ZONE I=           3 ,J=           3 , F=POINT
 -0.69987E+05  0.45088E+04  0.00000E+00 1
 -0.68739E+05  0.45067E+04  0.00000E+00 1
 -0.67492E+05  0.45046E+04  0.00000E+00 1
 -0.69991E+05  0.52558E+04  0.00000E+00 1
 -0.68743E+05  0.52544E+04  0.00000E+00 1
 -0.67495E+05  0.52531E+04  0.00000E+00 1
 -0.69996E+05  0.60028E+04  0.00000E+00 1
 -0.68747E+05  0.60022E+04  0.00000E+00 1
 -0.67498E+05  0.60016E+04  0.00000E+00 1
 ZONE I=           3 ,J=           3 , F=POINT
 -0.67492E+05  0.45046E+04  0.00000E+00 1
 -0.66245E+05  0.45031E+04  0.00000E+00 1
 -0.64997E+05  0.45015E+04  0.00000E+00 1
 -0.67495E+05  0.52531E+04  0.00000E+00 1
 -0.66247E+05  0.52521E+04  0.00000E+00 1
 -0.64998E+05  0.52510E+04  0.00000E+00 1
 -0.67498E+05  0.60016E+04  0.00000E+00 1
 -0.66248E+05  0.60011E+04  0.00000E+00 1
 -0.64999E+05  0.60006E+04  0.00000E+00 1
 ZONE I=           3 ,J=           3 , F=POINT
 -0.64995E+05  0.30024E+04  0.00000E+00 1
 -0.63747E+05  0.30015E+04  0.00000E+00 1
 -0.62499E+05  0.30005E+04  0.00000E+00 1
 -0.64996E+05  0.37520E+04  0.00000E+00 1
 -0.63748E+05  0.37512E+04  0.00000E+00 1
 -0.62499E+05  0.37504E+04  0.00000E+00 1
 -0.64997E+05  0.45015E+04  0.00000E+00 1
 -0.63748E+05  0.45009E+04  0.00000E+00 1
 -0.62499E+05  0.45003E+04  0.00000E+00 1
 ZONE I=           3 ,J=           3 , F=POINT
 -0.62499E+05  0.30005E+04  0.00000E+00 1
 -0.61249E+05  0.30003E+04  0.00000E+00 1
 -0.60000E+05  0.30001E+04  0.00000E+00 1
 -0.62499E+05  0.37504E+04  0.00000E+00 1
 -0.61250E+05  0.37502E+04  0.00000E+00 1
 -0.60000E+05  0.37500E+04  0.00000E+00 1
 -0.62499E+05  0.45003E+04  0.00000E+00 1
 -0.61250E+05  0.45002E+04  0.00000E+00 1
 -0.60000E+05  0.45000E+04  0.00000E+00 1
 ZONE I=           3 ,J=           3 , F=POINT
 -0.64997E+05  0.45015E+04  0.00000E+00 1
 -0.63748E+05  0.45009E+04  0.00000E+00 1
 -0.62499E+05  0.45003E+04  0.00000E+00 1
 -0.64998E+05  0.52510E+04  0.00000E+00 1
 -0.63749E+05  0.52506E+04  0.00000E+00 1
 -0.62500E+05  0.52502E+04  0.00000E+00 1
 -0.64999E+05  0.60006E+04  0.00000E+00 1
 -0.63749E+05  0.60003E+04  0.00000E+00 1
 -0.62500E+05  0.60001E+04  0.00000E+00 1
 ZONE I=           3 ,J=           3 , F=POINT
 -0.62499E+05  0.45003E+04  0.00000E+00 1
 -0.61250E+05  0.45002E+04  0.00000E+00 1
 -0.60000E+05  0.45000E+04  0.00000E+00 1
 -0.62500E+05  0.52502E+04  0.00000E+00 1
 -0.61250E+05  0.52501E+04  0.00000E+00 1
 -0.60000E+05  0.52500E+04  0.00000E+00 1
 -0.62500E+05  0.60001E+04  0.00000E+00 1
 -0.61250E+05  0.60001E+04  0.00000E+00 1
 -0.60000E+05  0.60000E+04  0.00000E+00 1
 ZONE I=           3 ,J=           3 , F=POINT
 -0.60000E+05  0.30001E+04  0.00000E+00 1
 -0.58750E+05  0.30000E+04  0.00000E+00 1
 -0.57500E+05  0.30000E+04  0.00000E+00 1
 -0.60000E+05  0.37500E+04  0.00000E+00 1
 -0.58750E+05  0.37500E+04  0.00000E+00 1
 -0.57500E+05  0.37500E+04  0.00000E+00 1
 -0.60000E+05  0.45000E+04  0.00000E+00 1
 -0.58750E+05  0.45000E+04  0.00000E+00 1
 -0.57500E+05  0.45000E+04  0.00000E+00 1
 ZONE I=           3 ,J=           3 , F=POINT
 -0.57500E+05  0.30000E+04  0.00000E+00 1
 -0.56250E+05  0.30000E+04  0.00000E+00 1
 -0.55000E+05  0.30000E+04  0.00000E+00 1
 -0.57500E+05  0.37500E+04  0.00000E+00 1
 -0.56250E+05  0.37500E+04  0.00000E+00 1
 -0.55000E+05  0.37500E+04  0.00000E+00 1
 -0.57500E+05  0.45000E+04  0.00000E+00 1
 -0.56250E+05  0.45000E+04  0.00000E+00 1
 -0.55000E+05  0.45000E+04  0.00000E+00 1
 ZONE I=           3 ,J=           3 , F=POINT
 -0.60000E+05  0.45000E+04  0.00000E+00 1
 -0.58750E+05  0.45000E+04  0.00000E+00 1
 -0.57500E+05  0.45000E+04  0.00000E+00 1
 -0.60000E+05  0.52500E+04  0.00000E+00 1
 -0.58750E+05  0.52500E+04  0.00000E+00 1
 -0.57500E+05  0.52500E+04  0.00000E+00 1
 -0.60000E+05  0.60000E+04  0.00000E+00 1
 -0.58750E+05  0.60000E+04  0.00000E+00 1
 -0.57500E+05  0.60000E+04  0.00000E+00 1
 ZONE I=           3 ,J=           3 , F=POINT
 -0.57500E+05  0.45000E+04  0.00000E+00 1
 -0.56250E+05  0.45000E+04  0.00000E+00 1
 -0.55000E+05  0.45000E+04  0.00000E+00 1
 -0.57500E+05  0.52500E+04  0.00000E+00 1
 -0.56250E+05  0.52500E+04  0.00000E+00 1
 -0.55000E+05  0.52500E+04  0.00000E+00 1
 -0.57500E+05  0.60000E+04  0.00000E+00 1
 -0.56250E+05  0.60000E+04  0.00000E+00 1
 -0.55000E+05  0.60000E+04  0.00000E+00 1
 ZONE I=           3 ,J=           3 , F=POINT
 -0.55000E+05  0.30000E+04  0.00000E+00 1
 -0.53750E+05  0.30000E+04  0.00000E+00 1
 -0.52500E+05  0.30000E+04  0.00000E+00 1
 -0.55000E+05  0.37500E+04  0.00000E+00 1
 -0.53750E+05  0.37500E+04  0.00000E+00 1
 -0.52500E+05  0.37500E+04  0.00000E+00 1
 -0.55000E+05  0.45000E+04  0.00000E+00 1
 -0.53750E+05  0.45000E+04  0.00000E+00 1
 -0.52500E+05  0.45000E+04  0.00000E+00 1
 ZONE I=           3 ,J=           3 , F=POINT
 -0.52500E+05  0.30000E+04  0.00000E+00 1
 -0.51250E+05  0.30000E+04  0.00000E+00 1
 -0.50000E+05  0.30000E+04  0.00000E+00 1