  TITLE = "SEM Quad mesh" 
  VARIABLES = "x", "y", "z", "material ID"
 ZONE I=           3 ,J=           3 , F=POINT
 -0.20179E+05  0.41126E+04  0.00000E+00 1
 -0.18050E+05  0.39263E+04  0.00000E+00 1
 -0.15921E+05  0.37400E+04  0.00000E+00 1
 -0.20082E+05  0.61917E+04  0.00000E+00 1
 -0.17673E+05  0.59744E+04  0.00000E+00 1
 -0.15264E+05  0.57570E+04  0.00000E+00 1
 -0.19986E+05  0.82708E+04  0.00000E+00 1
 -0.17297E+05  0.80224E+04  0.00000E+00 1
 -0.14607E+05  0.77739E+04  0.00000E+00 1
 ZONE I=           3 ,J=           3 , F=POINT
  0.15921E+05  0.37400E+04  0.00000E+00 1
  0.18050E+05  0.39263E+04  0.00000E+00 1
  0.20179E+05  0.41126E+04  0.00000E+00 1
  0.15264E+05  0.57570E+04  0.00000E+00 1
  0.17673E+05  0.59743E+04  0.00000E+00 1
  0.20082E+05  0.61917E+04  0.00000E+00 1
  0.14607E+05  0.77739E+04  0.00000E+00 1
  0.17297E+05  0.80224E+04  0.00000E+00 1
  0.19986E+05  0.82708E+04  0.00000E+00 1
 ZONE I=           3 ,J=           3 , F=POINT
 -0.19986E+05  0.82708E+04  0.00000E+00 1
 -0.17297E+05  0.80224E+04  0.00000E+00 1
 -0.14607E+05  0.77739E+04  0.00000E+00 1
 -0.19940E+05  0.10380E+05  0.00000E+00 1
 -0.17325E+05  0.10241E+05  0.00000E+00 1
 -0.14710E+05  0.10102E+05  0.00000E+00 1
 -0.19894E+05  0.12489E+05  0.00000E+00 1
 -0.17354E+05  0.12460E+05  0.00000E+00 1
 -0.14813E+05  0.12430E+05  0.00000E+00 1
 ZONE I=           3 ,J=           3 , F=POINT
 -0.14607E+05  0.77739E+04  0.00000E+00 1
 -0.12518E+05  0.82385E+04  0.00000E+00 1
 -0.10428E+05  0.87030E+04  0.00000E+00 1
 -0.14710E+05  0.10102E+05  0.00000E+00 1
 -0.12318E+05  0.10279E+05  0.00000E+00 1
 -0.99249E+04  0.10456E+05  0.00000E+00 1
 -0.14813E+05  0.12430E+05  0.00000E+00 1
 -0.12117E+05  0.12319E+05  0.00000E+00 1
 -0.94216E+04  0.12208E+05  0.00000E+00 1
 ZONE I=           3 ,J=           3 , F=POINT
  0.10428E+05  0.87030E+04  0.00000E+00 1
  0.12518E+05  0.82385E+04  0.00000E+00 1
  0.14607E+05  0.77739E+04  0.00000E+00 1
  0.99249E+04  0.10456E+05  0.00000E+00 1
  0.12318E+05  0.10279E+05  0.00000E+00 1
  0.14710E+05  0.10102E+05  0.00000E+00 1
  0.94216E+04  0.12208E+05  0.00000E+00 1
  0.12117E+05  0.12319E+05  0.00000E+00 1
  0.14813E+05  0.12430E+05  0.00000E+00 1
 ZONE I=           3 ,J=           3 , F=POINT
  0.14607E+05  0.77739E+04  0.00000E+00 1
  0.17297E+05  0.80224E+04  0.00000E+00 1
  0.19986E+05  0.82708E+04  0.00000E+00 1
  0.14710E+05  0.10102E+05  0.00000E+00 1
  0.17325E+05  0.10241E+05  0.00000E+00 1
  0.19940E+05  0.10380E+05  0.00000E+00 1
  0.14813E+05  0.12430E+05  0.00000E+00 1
  0.17354E+05  0.12460E+05  0.00000E+00 1
  0.19894E+05  0.12489E+05  0.00000E+00 1
 ZONE I=           3 ,J=           3 , F=POINT
 -0.19894E+05  0.12489E+05  0.00000E+00 1
 -0.17354E+05  0.12460E+05  0.00000E+00 1
 -0.14813E+05  0.12430E+05  0.00000E+00 1
 -0.19906E+05  0.14613E+05  0.00000E+00 1
 -0.17371E+05  0.14592E+05  0.00000E+00 1
 -0.14836E+05  0.14571E+05  0.00000E+00 1
 -0.19918E+05  0.16736E+05  0.00000E+00 1
 -0.17388E+05  0.16724E+05  0.00000E+00 1
 -0.14858E+05  0.16711E+05  0.00000E+00 1
 ZONE I=           3 ,J=           3 , F=POINT
 -0.14813E+05  0.12430E+05  0.00000E+00 1
 -0.12117E+05  0.12319E+05  0.00000E+00 1
 -0.94216E+04  0.12208E+05  0.00000E+00 1
 -0.14836E+05  0.14571E+05  0.00000E+00 1
 -0.12237E+05  0.14525E+05  0.00000E+00 1
 -0.96373E+04  0.14479E+05  0.00000E+00 1
 -0.14858E+05  0.16711E+05  0.00000E+00 1
 -0.12356E+05  0.16731E+05  0.00000E+00 1
 -0.98530E+04  0.16751E+05  0.00000E+00 1
 ZONE I=           3 ,J=           3 , F=POINT
 -0.94216E+04  0.12208E+05  0.00000E+00 1
 -0.71519E+04  0.12650E+05  0.00000E+00 1
 -0.48823E+04  0.13092E+05  0.00000E+00 1
 -0.96373E+04  0.14479E+05  0.00000E+00 1
 -0.72703E+04  0.14710E+05  0.00000E+00 1
 -0.49033E+04  0.14941E+05  0.00000E+00 1
 -0.98530E+04  0.16751E+05  0.00000E+00 1
 -0.73886E+04  0.16771E+05  0.00000E+00 1
 -0.49242E+04  0.16791E+05  0.00000E+00 1
 ZONE I=           3 ,J=           3 , F=POINT
 -0.48823E+04  0.13092E+05  0.00000E+00 1
 -0.24411E+04  0.12543E+05  0.00000E+00 1
  0.61200E-03  0.11994E+05  0.00000E+00 1
 -0.49033E+04  0.14941E+05  0.00000E+00 1
 -0.24516E+04  0.14664E+05  0.00000E+00 1
  0.20570E-03  0.14386E+05  0.00000E+00 1
 -0.49242E+04  0.16791E+05  0.00000E+00 1
 -0.24621E+04  0.16785E+05  0.00000E+00 1
 -0.20061E-03  0.16779E+05  0.00000E+00 1
 ZONE I=           3 ,J=           3 , F=POINT
  0.61200E-03  0.11994E+05  0.00000E+00 1
  0.24411E+04  0.12543E+05  0.00000E+00 1
  0.48823E+04  0.13092E+05  0.00000E+00 1
  0.20570E-03  0.14386E+05  0.00000E+00 1
  0.24516E+04  0.14664E+05  0.00000E+00 1
  0.49033E+04  0.14941E+05  0.00000E+00 1
 -0.20061E-03  0.16779E+05  0.00000E+00 1
  0.24621E+04  0.16785E+05  0.00000E+00 1
  0.49242E+04  0.16791E+05  0.00000E+00 1
 ZONE I=           3 ,J=           3 , F=POINT
  0.48823E+04  0.13092E+05  0.00000E+00 1
  0.71519E+04  0.12650E+05  0.00000E+00 1
  0.94216E+04  0.12208E+05  0.00000E+00 1
  0.49033E+04  0.14941E+05  0.00000E+00 1
  0.72703E+04  0.14710E+05  0.00000E+00 1
  0.96373E+04  0.14479E+05  0.00000E+00 1
  0.49242E+04  0.16791E+05  0.00000E+00 1
  0.73886E+04  0.16771E+05  0.00000E+00 1
  0.98530E+04  0.16751E+05  0.00000E+00 1
 ZONE I=           3 ,J=           3 , F=POINT
  0.94216E+04  0.12208E+05  0.00000E+00 1
  0.12117E+05  0.12319E+05  0.00000E+00 1
  0.14813E+05  0.12430E+05  0.00000E+00 1
  0.96373E+04  0.14479E+05  0.00000E+00 1
  0.12237E+05  0.14525E+05  0.00000E+00 1
  0.14836E+05  0.14571E+05  0.00000E+00 1
  0.98530E+04  0.16751E+05  0.00000E+00 1
  0.12356E+05  0.16731E+05  0.00000E+00 1
  0.14858E+05  0.16711E+05  0.00000E+00 1
 ZONE I=           3 ,J=           3 , F=POINT
  0.14813E+05  0.12430E+05  0.00000E+00 1
  0.17354E+05  0.12460E+05  0.00000E+00 1
  0.19894E+05  0.12489E+05  0.00000E+00 1
  0.14836E+05  0.14571E+05  0.00000E+00 1
  0.17371E+05  0.14592E+05  0.00000E+00 1
  0.19906E+05  0.14613E+05  0.00000E+00 1
  0.14858E+05  0.16711E+05  0.00000E+00 1
  0.17388E+05  0.16724E+05  0.00000E+00 1
  0.19918E+05  0.16736E+05  0.00000E+00 1
 ZONE I=           3 ,J=           3 , F=POINT
 -0.11452E+05  0.16069E+04  0.00000E+00 1
 -0.10836E+05  0.16637E+04  0.00000E+00 1
 -0.10220E+05  0.17206E+04  0.00000E+00 1
 -0.11983E+05  0.23411E+04  0.00000E+00 1
 -0.10985E+05  0.25207E+04  0.00000E+00 1
 -0.99875E+04  0.27004E+04  0.00000E+00 1
 -0.12514E+05  0.30753E+04  0.00000E+00 1
 -0.11134E+05  0.33777E+04  0.00000E+00 1
 -0.97549E+04  0.36802E+04  0.00000E+00 1
 ZONE I=           3 ,J=           3 , F=POINT
 -0.80952E+04  0.91834E+03  0.00000E+00 1
 -0.77406E+04  0.98705E+03  0.00000E+00 1
 -0.73859E+04  0.10558E+04  0.00000E+00 1
 -0.83817E+04  0.12465E+04  0.00000E+00 1
 -0.78995E+04  0.13862E+04  0.00000E+00 1
 -0.74173E+04  0.15259E+04  0.00000E+00 1
 -0.86683E+04  0.15747E+04  0.00000E+00 1
 -0.80585E+04  0.17854E+04  0.00000E+00 1
 -0.74486E+04  0.19961E+04  0.00000E+00 1
 ZONE I=           3 ,J=           3 , F=POINT
 -0.73859E+04  0.10558E+04  0.00000E+00 1
 -0.68427E+04  0.10971E+04  0.00000E+00 1
 -0.62995E+04  0.11384E+04  0.00000E+00 1
 -0.74173E+04  0.15259E+04  0.00000E+00 1
 -0.68471E+04  0.15646E+04  0.00000E+00 1
 -0.62770E+04  0.16032E+04  0.00000E+00 1
 -0.74486E+04  0.19961E+04  0.00000E+00 1
 -0.68515E+04  0.20321E+04  0.00000E+00 1
 -0.62544E+04  0.20681E+04  0.00000E+00 1
 ZONE I=           3 ,J=           3 , F=POINT
 -0.62995E+04  0.11384E+04  0.00000E+00 1
 -0.58536E+04  0.11647E+04  0.00000E+00 1
 -0.54077E+04  0.11910E+04  0.00000E+00 1
 -0.62770E+04  0.16032E+04  0.00000E+00 1
 -0.56892E+04  0.15649E+04  0.00000E+00 1
 -0.51014E+04  0.15266E+04  0.00000E+00 1
 -0.62544E+04  0.20681E+04  0.00000E+00 1
 -0.55247E+04  0.19652E+04  0.00000E+00 1
 -0.47951E+04  0.18623E+04  0.00000E+00 1
 ZONE I=           3 ,J=           3 , F=POINT
 -0.10220E+05  0.17206E+04  0.00000E+00 1
 -0.94442E+04  0.16476E+04  0.00000E+00 1
 -0.86683E+04  0.15747E+04  0.00000E+00 1
 -0.99875E+04  0.27004E+04  0.00000E+00 1
 -0.93224E+04  0.24533E+04  0.00000E+00 1
 -0.86574E+04  0.22062E+04  0.00000E+00 1
 -0.97549E+04  0.36802E+04  0.00000E+00 1
 -0.92007E+04  0.32590E+04  0.00000E+00 1
 -0.86466E+04  0.28378E+04  0.00000E+00 1
 ZONE I=           3 ,J=           3 , F=POINT
 -0.86683E+04  0.15747E+04  0.00000E+00 1
 -0.80585E+04  0.17854E+04  0.00000E+00 1
 -0.74486E+04  0.19961E+04  0.00000E+00 1
 -0.86574E+04  0.22062E+04  0.00000E+00 1
 -0.80936E+04  0.23664E+04  0.00000E+00 1
 -0.75299E+04  0.25265E+04  0.00000E+00 1
 -0.86466E+04  0.28378E+04  0.00000E+00 1
 -0.81288E+04  0.29474E+04  0.00000E+00 1
 -0.76111E+04  0.30570E+04  0.00000E+00 1
 ZONE I=           3 ,J=           3 , F=POINT
 -0.86466E+04  0.28378E+04  0.00000E+00 1
 -0.81288E+04  0.29474E+04  0.00000E+00 1
 -0.76111E+04  0.30570E+04  0.00000E+00 1
 -0.92007E+04  0.32590E+04  0.00000E+00 1
 -0.84437E+04  0.34769E+04  0.00000E+00 1
 -0.76868E+04  0.36949E+04  0.00000E+00 1
 -0.97549E+04  0.36802E+04  0.00000E+00 1
 -0.87587E+04  0.40065E+04  0.00000E+00 1
 -0.77624E+04  0.43328E+04  0.00000E+00 1
 ZONE I=           3 ,J=           3 , F=POINT
 -0.74486E+04  0.19961E+04  0.00000E+00 1
 -0.68515E+04  0.20321E+04  0.00000E+00 1
 -0.62544E+04  0.20681E+04  0.00000E+00 1
 -0.75299E+04  0.25265E+04  0.00000E+00 1
 -0.68950E+04  0.25626E+04  0.00000E+00 1
 -0.62601E+04  0.25987E+04  0.00000E+00 1
 -0.76111E+04  0.30570E+04  0.00000E+00 1
 -0.69384E+04  0.30931E+04  0.00000E+00 1
 -0.62657E+04  0.31293E+04  0.00000E+00 1
 ZONE I=           3 ,J=           3 , F=POINT
 -0.62544E+04  0.20681E+04  0.00000E+00 1
 -0.55247E+04  0.19652E+04  0.00000E+00 1
 -0.47951E+04  0.18623E+04  0.00000E+00 1
 -0.62601E+04  0.25987E+04  0.00000E+00 1
 -0.55670E+04  0.25409E+04  0.00000E+00 1
 -0.48740E+04  0.24832E+04  0.00000E+00 1
 -0.62657E+04  0.31293E+04  0.00000E+00 1
 -0.56093E+04  0.31167E+04  0.00000E+00 1
 -0.49529E+04  0.31041E+04  0.00000E+00 1
 ZONE I=           3 ,J=           3 , F=POINT
 -0.76111E+04  0.30570E+04  0.00000E+00 1
 -0.69384E+04  0.30931E+04  0.00000E+00 1
 -0.62657E+04  0.31293E+04  0.00000E+00 1
 -0.76868E+04  0.36949E+04  0.00000E+00 1
 -0.69744E+04  0.36984E+04  0.00000E+00 1
 -0.62619E+04  0.37020E+04  0.00000E+00 1
 -0.77624E+04  0.43328E+04  0.00000E+00 1
 -0.70103E+04  0.43037E+04  0.00000E+00 1
 -0.62581E+04  0.42746E+04  0.00000E+00 1
 ZONE I=           3 ,J=           3 , F=POINT
 -0.62657E+04  0.31293E+04  0.00000E+00 1
 -0.56093E+04  0.31167E+04  0.00000E+00 1
 -0.49529E+04  0.31041E+04  0.00000E+00 1
 -0.62619E+04  0.37020E+04  0.00000E+00 1
 -0.56134E+04  0.36732E+04  0.00000E+00 1
 -0.49649E+04  0.36445E+04  0.00000E+00 1
 -0.62581E+04  0.42746E+04  0.00000E+00 1
 -0.56175E+04  0.42298E+04  0.00000E+00 1
 -0.49768E+04  0.41849E+04  0.00000E+00 1
 ZONE I=           3 ,J=           3 , F=POINT
 -0.40886E+04  0.15902E+04  0.00000E+00 1
 -0.38935E+04  0.16152E+04  0.00000E+00 1
 -0.36984E+04  0.16402E+04  0.00000E+00 1
 -0.44418E+04  0.17263E+04  0.00000E+00 1
 -0.40993E+04  0.18173E+04  0.00000E+00 1
 -0.37567E+04  0.19083E+04  0.00000E+00 1
 -0.47951E+04  0.18623E+04  0.00000E+00 1
 -0.43051E+04  0.20194E+04  0.00000E+00 1
 -0.38150E+04  0.21765E+04  0.00000E+00 1
 ZONE I=           3 ,J=           3 , F=POINT
 -0.27542E+04  0.10593E+04  0.00000E+00 1
 -0.25164E+04  0.10351E+04  0.00000E+00 1
 -0.22786E+04  0.10109E+04  0.00000E+00 1
 -0.29067E+04  0.12820E+04  0.00000E+00 1
 -0.26273E+04  0.12849E+04  0.00000E+00 1
 -0.23479E+04  0.12878E+04  0.00000E+00 1
 -0.30593E+04  0.15046E+04  0.00000E+00 1
 -0.27383E+04  0.15346E+04  0.00000E+00 1
 -0.24173E+04  0.15647E+04  0.00000E+00 1
 ZONE I=           3 ,J=           3 , F=POINT
 -0.36984E+04  0.16402E+04  0.00000E+00 1
 -0.33788E+04  0.15724E+04  0.00000E+00 1
 -0.30593E+04  0.15046E+04  0.00000E+00 1
 -0.37567E+04  0.19083E+04  0.00000E+00 1
 -0.34205E+04  0.18627E+04  0.00000E+00 1
 -0.30842E+04  0.18171E+04  0.00000E+00 1
 -0.38150E+04  0.21765E+04  0.00000E+00 1
 -0.34621E+04  0.21531E+04  0.00000E+00 1
 -0.31092E+04  0.21297E+04  0.00000E+00 1
 ZONE I=           3 ,J=           3 , F=POINT
 -0.30593E+04  0.15046E+04  0.00000E+00 1
 -0.27383E+04  0.15346E+04  0.00000E+00 1
 -0.24173E+04  0.15647E+04  0.00000E+00 1
 -0.30842E+04  0.18171E+04  0.00000E+00 1
 -0.27678E+04  0.18233E+04  0.00000E+00 1
 -0.24514E+04  0.18295E+04  0.00000E+00 1
 -0.31092E+04  0.21297E+04  0.00000E+00 1
 -0.27974E+04  0.21120E+04  0.00000E+00 1
 -0.24856E+04  0.20943E+04  0.00000E+00 1
 ZONE I=           3 ,J=           3 , F=POINT
 -0.22786E+04  0.10109E+04  0.00000E+00 1
 -0.19891E+04  0.10656E+04  0.00000E+00 1
 -0.16995E+04  0.11202E+04  0.00000E+00 1
 -0.23479E+04  0.12878E+04  0.00000E+00 1
 -0.20556E+04  0.13239E+04  0.00000E+00 1
 -0.17633E+04  0.13600E+04  0.00000E+00 1
 -0.24173E+04  0.15647E+04  0.00000E+00 1
 -0.21221E+04  0.15822E+04  0.00000E+00 1
 -0.18270E+04  0.15998E+04  0.00000E+00 1
 ZONE I=           3 ,J=           3 , F=POINT
 -0.16995E+04  0.11202E+04  0.00000E+00 1
 -0.15158E+04  0.12042E+04  0.00000E+00 1
 -0.13320E+04  0.12881E+04  0.00000E+00 1
 -0.17633E+04  0.13600E+04  0.00000E+00 1
 -0.15361E+04  0.14063E+04  0.00000E+00 1
 -0.13089E+04  0.14527E+04  0.00000E+00 1
 -0.18270E+04  0.15998E+04  0.00000E+00 1
 -0.15564E+04  0.16085E+04  0.00000E+00 1
 -0.12859E+04  0.16172E+04  0.00000E+00 1
 ZONE I=           3 ,J=           3 , F=POINT
 -0.24173E+04  0.15647E+04  0.00000E+00 1
 -0.21221E+04  0.15822E+04  0.00000E+00 1
 -0.18270E+04  0.15998E+04  0.00000E+00 1
 -0.24514E+04  0.18295E+04  0.00000E+00 1
 -0.21447E+04  0.18411E+04  0.00000E+00 1
 -0.18379E+04  0.18526E+04  0.00000E+00 1
 -0.24856E+04  0.20943E+04  0.00000E+00 1
 -0.21672E+04  0.20999E+04  0.00000E+00 1
 -0.18488E+04  0.21055E+04  0.00000E+00 1
 ZONE I=           3 ,J=           3 , F=POINT
 -0.18270E+04  0.15998E+04  0.00000E+00 1
 -0.15564E+04  0.16085E+04  0.00000E+00 1
 -0.12859E+04  0.16172E+04  0.00000E+00 1
 -0.18379E+04  0.18526E+04  0.00000E+00 1
 -0.15208E+04  0.18603E+04  0.00000E+00 1
 -0.12037E+04  0.18681E+04  0.00000E+00 1
 -0.18488E+04  0.21055E+04  0.00000E+00 1
 -0.14852E+04  0.21122E+04  0.00000E+00 1
 -0.11215E+04  0.21189E+04  0.00000E+00 1
 ZONE I=           3 ,J=           3 , F=POINT
 -0.47951E+04  0.18623E+04  0.00000E+00 1
 -0.43051E+04  0.20194E+04  0.00000E+00 1
 -0.38150E+04  0.21765E+04  0.00000E+00 1
 -0.48740E+04  0.24832E+04  0.00000E+00 1
 -0.42945E+04  0.25484E+04  0.00000E+00 1
 -0.37149E+04  0.26137E+04  0.00000E+00 1
 -0.49529E+04  0.31041E+04  0.00000E+00 1
 -0.42839E+04  0.30774E+04  0.00000E+00 1
 -0.36148E+04  0.30508E+04  0.00000E+00 1
 ZONE I=           3 ,J=           3 , F=POINT
 -0.49529E+04  0.31041E+04  0.00000E+00 1
 -0.42839E+04  0.30774E+04  0.00000E+00 1
 -0.36148E+04  0.30508E+04  0.00000E+00 1
 -0.49649E+04  0.36445E+04  0.00000E+00 1
 -0.43173E+04  0.36440E+04  0.00000E+00 1
 -0.36698E+04  0.36434E+04  0.00000E+00 1
 -0.49768E+04  0.41849E+04  0.00000E+00 1
 -0.43508E+04  0.42105E+04  0.00000E+00 1
 -0.37247E+04  0.42361E+04  0.00000E+00 1
 ZONE I=           3 ,J=           3 , F=POINT
 -0.36148E+04  0.30508E+04  0.00000E+00 1
 -0.31116E+04  0.31636E+04  0.00000E+00 1
 -0.26084E+04  0.32765E+04  0.00000E+00 1
 -0.36698E+04  0.36434E+04  0.00000E+00 1
 -0.30763E+04  0.36973E+04  0.00000E+00 1
 -0.24829E+04  0.37512E+04  0.00000E+00 1
 -0.37247E+04  0.42361E+04  0.00000E+00 1
 -0.30411E+04  0.42310E+04  0.00000E+00 1
 -0.23574E+04  0.42259E+04  0.00000E+00 1
 ZONE I=           3 ,J=           3 , F=POINT
 -0.38150E+04  0.21765E+04  0.00000E+00 1
 -0.34621E+04  0.21531E+04  0.00000E+00 1
 -0.31092E+04  0.21297E+04  0.00000E+00 1
 -0.37149E+04  0.26137E+04  0.00000E+00 1
 -0.34004E+04  0.24826E+04  0.00000E+00 1
 -0.30859E+04  0.23515E+04  0.00000E+00 1
 -0.36148E+04  0.30508E+04  0.00000E+00 1
 -0.33387E+04  0.28121E+04  0.00000E+00 1
 -0.30626E+04  0.25733E+04  0.00000E+00 1
 ZONE I=           3 ,J=           3 , F=POINT
 -0.31092E+04  0.21297E+04  0.00000E+00 1
 -0.27974E+04  0.21120E+04  0.00000E+00 1
 -0.24856E+04  0.20943E+04  0.00000E+00 1
 -0.30859E+04  0.23515E+04  0.00000E+00 1
 -0.28013E+04  0.23580E+04  0.00000E+00 1
 -0.25167E+04  0.23646E+04  0.00000E+00 1
 -0.30626E+04  0.25733E+04  0.00000E+00 1
 -0.28051E+04  0.26041E+04  0.00000E+00 1
 -0.25477E+04  0.26348E+04  0.00000E+00 1
 ZONE I=           3 ,J=           3 , F=POINT
 -0.30626E+04  0.25733E+04  0.00000E+00 1
 -0.28051E+04  0.26041E+04  0.00000E+00 1
 -0.25477E+04  0.26348E+04  0.00000E+00 1
 -0.33387E+04  0.28121E+04  0.00000E+00 1
 -0.29584E+04  0.28839E+04  0.00000E+00 1
 -0.25781E+04  0.29556E+04  0.00000E+00 1
 -0.36148E+04  0.30508E+04  0.00000E+00 1
 -0.31116E+04  0.31636E+04  0.00000E+00 1
 -0.26084E+04  0.32765E+04  0.00000E+00 1
 ZONE I=           3 ,J=           3 , F=POINT
 -0.24856E+04  0.20943E+04  0.00000E+00 1
 -0.21672E+04  0.20999E+04  0.00000E+00 1
 -0.18488E+04  0.21055E+04  0.00000E+00 1
 -0.25167E+04  0.23646E+04  0.00000E+00 1
 -0.21883E+04  0.23701E+04  0.00000E+00 1
 -0.18600E+04  0.23756E+04  0.00000E+00 1
 -0.25477E+04  0.26348E+04  0.00000E+00 1
 -0.22094E+04  0.26403E+04  0.00000E+00 1
 -0.18711E+04  0.26457E+04  0.00000E+00 1
 ZONE I=           3 ,J=           3 , F=POINT
 -0.18488E+04  0.21055E+04  0.00000E+00 1
 -0.14852E+04  0.21122E+04  0.00000E+00 1
 -0.11215E+04  0.21189E+04  0.00000E+00 1
 -0.18600E+04  0.23756E+04  0.00000E+00 1
 -0.15135E+04  0.23805E+04  0.00000E+00 1
 -0.11671E+04  0.23854E+04  0.00000E+00 1
 -0.18711E+04  0.26457E+04  0.00000E+00 1
 -0.15419E+04  0.26488E+04  0.00000E+00 1
 -0.12127E+04  0.26519E+04  0.00000E+00 1
 ZONE I=           3 ,J=           3 , F=POINT
 -0.25477E+04  0.26348E+04  0.00000E+00 1
 -0.22094E+04  0.26403E+04  0.00000E+00 1
 -0.18711E+04  0.26457E+04  0.00000E+00 1
 -0.25781E+04  0.29556E+04  0.00000E+00 1
 -0.22237E+04  0.29434E+04  0.00000E+00 1
 -0.18693E+04  0.29313E+04  0.00000E+00 1
 -0.26084E+04  0.32765E+04  0.00000E+00 1
 -0.22380E+04  0.32466E+04  0.00000E+00 1
 -0.18675E+04  0.32168E+04  0.00000E+00 1
 ZONE I=           3 ,J=           3 , F=POINT
 -0.18711E+04  0.26457E+04  0.00000E+00 1
 -0.15419E+04  0.26488E+04  0.00000E+00 1
 -0.12127E+04  0.26519E+04  0.00000E+00 1
 -0.18693E+04  0.29313E+04  0.00000E+00 1
 -0.15451E+04  0.29197E+04  0.00000E+00 1
 -0.12208E+04  0.29081E+04  0.00000E+00 1
 -0.18675E+04  0.32168E+04  0.00000E+00 1
 -0.15482E+04  0.31906E+04  0.00000E+00 1
 -0.12289E+04  0.31643E+04  0.00000E+00 1
 ZONE I=           3 ,J=           3 , F=POINT
 -0.11215E+04  0.21189E+04  0.00000E+00 1
 -0.90424E+03  0.22168E+04  0.00000E+00 1
 -0.68699E+03  0.23146E+04  0.00000E+00 1
 -0.11671E+04  0.23854E+04  0.00000E+00 1
 -0.88589E+03  0.24337E+04  0.00000E+00 1
 -0.60469E+03  0.24821E+04  0.00000E+00 1
 -0.12127E+04  0.26519E+04  0.00000E+00 1
 -0.86755E+03  0.26507E+04  0.00000E+00 1
 -0.52240E+03  0.26496E+04  0.00000E+00 1
 ZONE I=           3 ,J=           3 , F=POINT
 -0.12127E+04  0.26519E+04  0.00000E+00 1
 -0.86755E+03  0.26507E+04  0.00000E+00 1
 -0.52240E+03  0.26496E+04  0.00000E+00 1
 -0.12208E+04  0.29081E+04  0.00000E+00 1
 -0.89187E+03  0.29150E+04  0.00000E+00 1
 -0.56296E+03  0.29219E+04  0.00000E+00 1
 -0.12289E+04  0.31643E+04  0.00000E+00 1
 -0.91619E+03  0.31792E+04  0.00000E+00 1
 -0.60353E+03  0.31941E+04  0.00000E+00 1
 ZONE I=           3 ,J=           3 , F=POINT
 -0.52240E+03  0.26496E+04  0.00000E+00 1
 -0.22685E+03  0.26888E+04  0.00000E+00 1
  0.68699E+02  0.27280E+04  0.00000E+00 1
 -0.56296E+03  0.29219E+04  0.00000E+00 1
 -0.25879E+03  0.29486E+04  0.00000E+00 1
  0.45388E+02  0.29753E+04  0.00000E+00 1
 -0.60353E+03  0.31941E+04  0.00000E+00 1
 -0.29072E+03  0.32084E+04  0.00000E+00 1
  0.22077E+02  0.32226E+04  0.00000E+00 1
 ZONE I=           3 ,J=           3 , F=POINT
 -0.26084E+04  0.32765E+04  0.00000E+00 1
 -0.22380E+04  0.32466E+04  0.00000E+00 1
 -0.18675E+04  0.32168E+04  0.00000E+00 1
 -0.24829E+04  0.37512E+04  0.00000E+00 1
 -0.21549E+04  0.35968E+04  0.00000E+00 1
 -0.18269E+04  0.34425E+04  0.00000E+00 1
 -0.23574E+04  0.42259E+04  0.00000E+00 1
 -0.20718E+04  0.39471E+04  0.00000E+00 1
 -0.17862E+04  0.36682E+04  0.00000E+00 1
 ZONE I=           3 ,J=           3 , F=POINT
 -0.18675E+04  0.32168E+04  0.00000E+00 1
 -0.15482E+04  0.31906E+04  0.00000E+00 1
 -0.12289E+04  0.31643E+04  0.00000E+00 1
 -0.18269E+04  0.34425E+04  0.00000E+00 1
 -0.15271E+04  0.34356E+04  0.00000E+00 1
 -0.12274E+04  0.34288E+04  0.00000E+00 1
 -0.17862E+04  0.36682E+04  0.00000E+00 1
 -0.15061E+04  0.36807E+04  0.00000E+00 1
 -0.12259E+04  0.36932E+04  0.00000E+00 1
 ZONE I=           3 ,J=           3 , F=POINT
 -0.17862E+04  0.36682E+04  0.00000E+00 1
 -0.15061E+04  0.36807E+04  0.00000E+00 1
 -0.12259E+04  0.36932E+04  0.00000E+00 1
 -0.20718E+04  0.39471E+04  0.00000E+00 1
 -0.16426E+04  0.39953E+04  0.00000E+00 1
 -0.12134E+04  0.40436E+04  0.00000E+00 1
 -0.23574E+04  0.42259E+04  0.00000E+00 1
 -0.17792E+04  0.43100E+04  0.00000E+00 1
 -0.12010E+04  0.43940E+04  0.00000E+00 1
 ZONE I=           3 ,J=           3 , F=POINT
 -0.12289E+04  0.31643E+04  0.00000E+00 1
 -0.91619E+03  0.31792E+04  0.00000E+00 1
 -0.60353E+03  0.31941E+04  0.00000E+00 1
 -0.12274E+04  0.34288E+04  0.00000E+00 1
 -0.93417E+03  0.34188E+04  0.00000E+00 1
 -0.64095E+03  0.34089E+04  0.00000E+00 1
 -0.12259E+04  0.36932E+04  0.00000E+00 1
 -0.95214E+03  0.36584E+04  0.00000E+00 1
 -0.67837E+03  0.36236E+04  0.00000E+00 1
 ZONE I=           3 ,J=           3 , F=POINT
 -0.60353E+03  0.31941E+04  0.00000E+00 1
 -0.29072E+03  0.32084E+04  0.00000E+00 1
  0.22077E+02  0.32226E+04  0.00000E+00 1
 -0.64095E+03  0.34089E+04  0.00000E+00 1
 -0.31392E+03  0.35233E+04  0.00000E+00 1
  0.13119E+02  0.36377E+04  0.00000E+00 1
 -0.67837E+03  0.36236E+04  0.00000E+00 1
 -0.33711E+03  0.38382E+04  0.00000E+00 1
  0.41611E+01  0.40527E+04  0.00000E+00 1
 ZONE I=           3 ,J=           3 , F=POINT
 -0.12259E+04  0.36932E+04  0.00000E+00 1
 -0.95214E+03  0.36584E+04  0.00000E+00 1
 -0.67837E+03  0.36236E+04  0.00000E+00 1
 -0.12134E+04  0.40436E+04  0.00000E+00 1
 -0.77527E+03  0.39409E+04  0.00000E+00 1
 -0.33711E+03  0.38382E+04  0.00000E+00 1
 -0.12010E+04  0.43940E+04  0.00000E+00 1
 -0.59840E+03  0.42234E+04  0.00000E+00 1
  0.41611E+01  0.40527E+04  0.00000E+00 1
 ZONE I=           3 ,J=           3 , F=POINT
  0.15570E+04  0.10451E+04  0.00000E+00 1
  0.17867E+04  0.10232E+04  0.00000E+00 1
  0.20165E+04  0.10012E+04  0.00000E+00 1
  0.14926E+04  0.12350E+04  0.00000E+00 1
  0.17384E+04  0.12517E+04  0.00000E+00 1
  0.19843E+04  0.12685E+04  0.00000E+00 1
  0.14282E+04  0.14249E+04  0.00000E+00 1
  0.16902E+04  0.14803E+04  0.00000E+00 1
  0.19521E+04  0.15357E+04  0.00000E+00 1
 ZONE I=           3 ,J=           3 , F=POINT
  0.20165E+04  0.10012E+04  0.00000E+00 1
  0.23121E+04  0.10556E+04  0.00000E+00 1
  0.26077E+04  0.11100E+04  0.00000E+00 1
  0.19843E+04  0.12685E+04  0.00000E+00 1
  0.22805E+04  0.13083E+04  0.00000E+00 1
  0.25768E+04  0.13481E+04  0.00000E+00 1
  0.19521E+04  0.15357E+04  0.00000E+00 1
  0.22490E+04  0.15609E+04  0.00000E+00 1
  0.25459E+04  0.15861E+04  0.00000E+00 1
 ZONE I=           3 ,J=           3 , F=POINT
  0.14282E+04  0.14249E+04  0.00000E+00 1
  0.16902E+04  0.14803E+04  0.00000E+00 1
  0.19521E+04  0.15357E+04  0.00000E+00 1
  0.13258E+04  0.16971E+04  0.00000E+00 1
  0.16257E+04  0.17478E+04  0.00000E+00 1
  0.19255E+04  0.17984E+04  0.00000E+00 1
  0.12235E+04  0.19693E+04  0.00000E+00 1
  0.15612E+04  0.20152E+04  0.00000E+00 1
  0.18989E+04  0.20611E+04  0.00000E+00 1
 ZONE I=           3 ,J=           3 , F=POINT
  0.19521E+04  0.15357E+04  0.00000E+00 1
  0.22490E+04  0.15609E+04  0.00000E+00 1
  0.25459E+04  0.15861E+04  0.00000E+00 1
  0.19255E+04  0.17984E+04  0.00000E+00 1
  0.22315E+04  0.18192E+04  0.00000E+00 1
  0.25376E+04  0.18401E+04  0.00000E+00 1
  0.18989E+04  0.20611E+04  0.00000E+00 1
  0.22140E+04  0.20776E+04  0.00000E+00 1
  0.25292E+04  0.20940E+04  0.00000E+00 1
 ZONE I=           3 ,J=           3 , F=POINT
  0.26077E+04  0.11100E+04  0.00000E+00 1
  0.28116E+04  0.11771E+04  0.00000E+00 1
  0.30154E+04  0.12441E+04  0.00000E+00 1
  0.25768E+04  0.13481E+04  0.00000E+00 1
  0.28507E+04  0.13797E+04  0.00000E+00 1
  0.31245E+04  0.14114E+04  0.00000E+00 1
  0.25459E+04  0.15861E+04  0.00000E+00 1
  0.28898E+04  0.15824E+04  0.00000E+00 1
  0.32336E+04  0.15787E+04  0.00000E+00 1
 ZONE I=           3 ,J=           3 , F=POINT
  0.25459E+04  0.15861E+04  0.00000E+00 1
  0.28898E+04  0.15824E+04  0.00000E+00 1
  0.32336E+04  0.15787E+04  0.00000E+00 1
  0.25376E+04  0.18401E+04  0.00000E+00 1
  0.28686E+04  0.18495E+04  0.00000E+00 1
  0.31996E+04  0.18589E+04  0.00000E+00 1
  0.25292E+04  0.20940E+04  0.00000E+00 1
  0.28474E+04  0.21166E+04  0.00000E+00 1
  0.31656E+04  0.21391E+04  0.00000E+00 1
 ZONE I=           3 ,J=           3 , F=POINT
  0.32336E+04  0.15787E+04  0.00000E+00 1
  0.35548E+04  0.16072E+04  0.00000E+00 1
  0.38760E+04  0.16357E+04  0.00000E+00 1
  0.31996E+04  0.18589E+04  0.00000E+00 1
  0.35425E+04  0.18784E+04  0.00000E+00 1
  0.38855E+04  0.18980E+04  0.00000E+00 1
  0.31656E+04  0.21391E+04  0.00000E+00 1
  0.35303E+04  0.21497E+04  0.00000E+00 1
  0.38949E+04  0.21602E+04  0.00000E+00 1
 ZONE I=           3 ,J=           3 , F=POINT
  0.38760E+04  0.16357E+04  0.00000E+00 1
  0.40720E+04  0.15773E+04  0.00000E+00 1
  0.42680E+04  0.15190E+04  0.00000E+00 1
  0.38855E+04  0.18980E+04  0.00000E+00 1
  0.42493E+04  0.17678E+04  0.00000E+00 1
  0.46132E+04  0.16377E+04  0.00000E+00 1
  0.38949E+04  0.21602E+04  0.00000E+00 1
  0.44266E+04  0.19583E+04  0.00000E+00 1
  0.49584E+04  0.17564E+04  0.00000E+00 1
 ZONE I=           3 ,J=           3 , F=POINT
  0.81368E+03  0.21488E+04  0.00000E+00 1
  0.10186E+04  0.20590E+04  0.00000E+00 1
  0.12235E+04  0.19693E+04  0.00000E+00 1
  0.72639E+03  0.23555E+04  0.00000E+00 1
  0.98364E+03  0.23203E+04  0.00000E+00 1
  0.12409E+04  0.22850E+04  0.00000E+00 1
  0.63909E+03  0.25623E+04  0.00000E+00 1
  0.94870E+03  0.25815E+04  0.00000E+00 1
  0.12583E+04  0.26007E+04  0.00000E+00 1
 ZONE I=           3 ,J=           3 , F=POINT
  0.68699E+02  0.27280E+04  0.00000E+00 1
  0.35389E+03  0.26451E+04  0.00000E+00 1
  0.63909E+03  0.25623E+04  0.00000E+00 1
  0.45388E+02  0.29753E+04  0.00000E+00 1
  0.34229E+03  0.29226E+04  0.00000E+00 1
  0.63919E+03  0.28699E+04  0.00000E+00 1
  0.22077E+02  0.32226E+04  0.00000E+00 1
  0.33068E+03  0.32001E+04  0.00000E+00 1
  0.63929E+03  0.31775E+04  0.00000E+00 1
 ZONE I=           3 ,J=           3 , F=POINT
  0.63909E+03  0.25623E+04  0.00000E+00 1
  0.94870E+03  0.25815E+04  0.00000E+00 1
  0.12583E+04  0.26007E+04  0.00000E+00 1
  0.63919E+03  0.28699E+04  0.00000E+00 1
  0.94603E+03  0.28724E+04  0.00000E+00 1
  0.12529E+04  0.28749E+04  0.00000E+00 1
  0.63929E+03  0.31775E+04  0.00000E+00 1
  0.94336E+03  0.31633E+04  0.00000E+00 1
  0.12474E+04  0.31491E+04  0.00000E+00 1
 ZONE I=           3 ,J=           3 , F=POINT
  0.12235E+04  0.19693E+04  0.00000E+00 1
  0.15612E+04  0.20152E+04  0.00000E+00 1
  0.18989E+04  0.20611E+04  0.00000E+00 1
  0.12409E+04  0.22850E+04  0.00000E+00 1
  0.15679E+04  0.23137E+04  0.00000E+00 1
  0.18950E+04  0.23424E+04  0.00000E+00 1
  0.12583E+04  0.26007E+04  0.00000E+00 1
  0.15747E+04  0.26122E+04  0.00000E+00 1
  0.18911E+04  0.26236E+04  0.00000E+00 1
 ZONE I=           3 ,J=           3 , F=POINT
  0.18989E+04  0.20611E+04  0.00000E+00 1
  0.22140E+04  0.20776E+04  0.00000E+00 1
  0.25292E+04  0.20940E+04  0.00000E+00 1
  0.18950E+04  0.23424E+04  0.00000E+00 1
  0.22200E+04  0.23522E+04  0.00000E+00 1
  0.25450E+04  0.23621E+04  0.00000E+00 1
  0.18911E+04  0.26236E+04  0.00000E+00 1
  0.22259E+04  0.26269E+04  0.00000E+00 1
  0.25608E+04  0.26301E+04  0.00000E+00 1
 ZONE I=           3 ,J=           3 , F=POINT
  0.12583E+04  0.26007E+04  0.00000E+00 1
  0.15747E+04  0.26122E+04  0.00000E+00 1
  0.18911E+04  0.26236E+04  0.00000E+00 1
  0.12529E+04  0.28749E+04  0.00000E+00 1
  0.15678E+04  0.28958E+04  0.00000E+00 1
  0.18827E+04  0.29168E+04  0.00000E+00 1
  0.12474E+04  0.31491E+04  0.00000E+00 1
  0.15609E+04  0.31795E+04  0.00000E+00 1
  0.18744E+04  0.32099E+04  0.00000E+00 1
 ZONE I=           3 ,J=           3 , F=POINT
  0.18911E+04  0.26236E+04  0.00000E+00 1
  0.22259E+04  0.26269E+04  0.00000E+00 1
  0.25608E+04  0.26301E+04  0.00000E+00 1
  0.18827E+04  0.29168E+04  0.00000E+00 1
  0.22350E+04  0.29342E+04  0.00000E+00 1
  0.25873E+04  0.29517E+04  0.00000E+00 1
  0.18744E+04  0.32099E+04  0.00000E+00 1
  0.22441E+04  0.32415E+04  0.00000E+00 1
  0.26138E+04  0.32732E+04  0.00000E+00 1
 ZONE I=           3 ,J=           3 , F=POINT
  0.22077E+02  0.32226E+04  0.00000E+00 1
  0.33068E+03  0.32001E+04  0.00000E+00 1
  0.63929E+03  0.31775E+04  0.00000E+00 1
  0.13119E+02  0.36377E+04  0.00000E+00 1
  0.33820E+03  0.35184E+04  0.00000E+00 1
  0.66328E+03  0.33991E+04  0.00000E+00 1
  0.41611E+01  0.40527E+04  0.00000E+00 1
  0.34572E+03  0.38367E+04  0.00000E+00 1
  0.68728E+03  0.36207E+04  0.00000E+00 1
 ZONE I=           3 ,J=           3 , F=POINT
  0.63929E+03  0.31775E+04  0.00000E+00 1
  0.94336E+03  0.31633E+04  0.00000E+00 1
  0.12474E+04  0.31491E+04  0.00000E+00 1
  0.66328E+03  0.33991E+04  0.00000E+00 1
  0.95123E+03  0.34094E+04  0.00000E+00 1
  0.12392E+04  0.34197E+04  0.00000E+00 1
  0.68728E+03  0.36207E+04  0.00000E+00 1
  0.95910E+03  0.36555E+04  0.00000E+00 1
  0.12309E+04  0.36903E+04  0.00000E+00 1
 ZONE I=           3 ,J=           3 , F=POINT
  0.68728E+03  0.36207E+04  0.00000E+00 1
  0.95910E+03  0.36555E+04  0.00000E+00 1
  0.12309E+04  0.36903E+04  0.00000E+00 1
  0.34572E+03  0.38367E+04  0.00000E+00 1
  0.78122E+03  0.39393E+04  0.00000E+00 1
  0.12167E+04  0.40419E+04  0.00000E+00 1
  0.41611E+01  0.40527E+04  0.00000E+00 1
  0.60334E+03  0.42231E+04  0.00000E+00 1
  0.12025E+04  0.43936E+04  0.00000E+00 1
 ZONE I=           3 ,J=           3 , F=POINT
  0.12474E+04  0.31491E+04  0.00000E+00 1
  0.15609E+04  0.31795E+04  0.00000E+00 1
  0.18744E+04  0.32099E+04  0.00000E+00 1