  TITLE = "SEM Quad mesh" 
  VARIABLES = "x", "y", "z", "material ID"
 ZONE I=           3 ,J=           3 , F=POINT
 -0.24494E+05  0.41968E+03  0.00000E+00 1
 -0.24244E+05  0.41981E+03  0.00000E+00 1
 -0.23994E+05  0.41994E+03  0.00000E+00 1
 -0.24495E+05  0.61717E+03  0.00000E+00 1
 -0.24244E+05  0.62144E+03  0.00000E+00 1
 -0.23994E+05  0.62571E+03  0.00000E+00 1
 -0.24495E+05  0.81465E+03  0.00000E+00 1
 -0.24245E+05  0.82307E+03  0.00000E+00 1
 -0.23995E+05  0.83148E+03  0.00000E+00 1
 ZONE I=           3 ,J=           3 , F=POINT
 -0.23994E+05  0.41994E+03  0.00000E+00 1
 -0.23745E+05  0.42031E+03  0.00000E+00 1
 -0.23497E+05  0.42068E+03  0.00000E+00 1
 -0.23994E+05  0.62571E+03  0.00000E+00 1
 -0.23746E+05  0.62774E+03  0.00000E+00 1
 -0.23497E+05  0.62977E+03  0.00000E+00 1
 -0.23995E+05  0.83148E+03  0.00000E+00 1
 -0.23746E+05  0.83517E+03  0.00000E+00 1
 -0.23497E+05  0.83886E+03  0.00000E+00 1
 ZONE I=           3 ,J=           3 , F=POINT
 -0.23497E+05  0.42068E+03  0.00000E+00 1
 -0.23248E+05  0.42051E+03  0.00000E+00 1
 -0.22999E+05  0.42034E+03  0.00000E+00 1
 -0.23497E+05  0.62977E+03  0.00000E+00 1
 -0.23248E+05  0.63000E+03  0.00000E+00 1
 -0.22999E+05  0.63023E+03  0.00000E+00 1
 -0.23497E+05  0.83886E+03  0.00000E+00 1
 -0.23248E+05  0.83949E+03  0.00000E+00 1
 -0.22999E+05  0.84012E+03  0.00000E+00 1
 ZONE I=           3 ,J=           3 , F=POINT
 -0.22999E+05  0.42034E+03  0.00000E+00 1
 -0.22750E+05  0.42021E+03  0.00000E+00 1
 -0.22500E+05  0.42008E+03  0.00000E+00 1
 -0.22999E+05  0.63023E+03  0.00000E+00 1
 -0.22749E+05  0.63015E+03  0.00000E+00 1
 -0.22500E+05  0.63007E+03  0.00000E+00 1
 -0.22999E+05  0.84012E+03  0.00000E+00 1
 -0.22749E+05  0.84009E+03  0.00000E+00 1
 -0.22500E+05  0.84007E+03  0.00000E+00 1
 ZONE I=           3 ,J=           3 , F=POINT
 -0.22500E+05  0.42008E+03  0.00000E+00 1
 -0.22250E+05  0.42004E+03  0.00000E+00 1
 -0.22000E+05  0.42001E+03  0.00000E+00 1
 -0.22500E+05  0.63007E+03  0.00000E+00 1
 -0.22250E+05  0.63004E+03  0.00000E+00 1
 -0.22000E+05  0.63001E+03  0.00000E+00 1
 -0.22500E+05  0.84007E+03  0.00000E+00 1
 -0.22250E+05  0.84004E+03  0.00000E+00 1
 -0.22000E+05  0.84001E+03  0.00000E+00 1
 ZONE I=           3 ,J=           3 , F=POINT
 -0.22000E+05  0.42001E+03  0.00000E+00 1
 -0.21750E+05  0.42001E+03  0.00000E+00 1
 -0.21500E+05  0.42000E+03  0.00000E+00 1
 -0.22000E+05  0.63001E+03  0.00000E+00 1
 -0.21750E+05  0.63001E+03  0.00000E+00 1
 -0.21500E+05  0.63000E+03  0.00000E+00 1
 -0.22000E+05  0.84001E+03  0.00000E+00 1
 -0.21750E+05  0.84001E+03  0.00000E+00 1
 -0.21500E+05  0.84000E+03  0.00000E+00 1
 ZONE I=           3 ,J=           3 , F=POINT
 -0.21500E+05  0.42000E+03  0.00000E+00 1
 -0.21250E+05  0.42000E+03  0.00000E+00 1
 -0.21000E+05  0.42000E+03  0.00000E+00 1
 -0.21500E+05  0.63000E+03  0.00000E+00 1
 -0.21250E+05  0.63000E+03  0.00000E+00 1
 -0.21000E+05  0.63000E+03  0.00000E+00 1
 -0.21500E+05  0.84000E+03  0.00000E+00 1
 -0.21250E+05  0.84000E+03  0.00000E+00 1
 -0.21000E+05  0.84000E+03  0.00000E+00 1
 ZONE I=           3 ,J=           3 , F=POINT
 -0.21000E+05  0.42000E+03  0.00000E+00 1
 -0.20750E+05  0.42000E+03  0.00000E+00 1
 -0.20500E+05  0.42000E+03  0.00000E+00 1
 -0.21000E+05  0.63000E+03  0.00000E+00 1
 -0.20750E+05  0.63000E+03  0.00000E+00 1
 -0.20500E+05  0.63000E+03  0.00000E+00 1
 -0.21000E+05  0.84000E+03  0.00000E+00 1
 -0.20750E+05  0.84000E+03  0.00000E+00 1
 -0.20500E+05  0.84000E+03  0.00000E+00 1
 ZONE I=           3 ,J=           3 , F=POINT
 -0.20500E+05  0.42000E+03  0.00000E+00 1
 -0.20250E+05  0.42000E+03  0.00000E+00 1
 -0.20000E+05  0.42000E+03  0.00000E+00 1
 -0.20500E+05  0.63000E+03  0.00000E+00 1
 -0.20250E+05  0.63000E+03  0.00000E+00 1
 -0.20000E+05  0.63000E+03  0.00000E+00 1
 -0.20500E+05  0.84000E+03  0.00000E+00 1
 -0.20250E+05  0.84000E+03  0.00000E+00 1
 -0.20000E+05  0.84000E+03  0.00000E+00 1
 ZONE I=           3 ,J=           3 , F=POINT
 -0.20000E+05  0.42000E+03  0.00000E+00 1
 -0.19750E+05  0.42000E+03  0.00000E+00 1
 -0.19500E+05  0.42000E+03  0.00000E+00 1
 -0.20000E+05  0.63000E+03  0.00000E+00 1
 -0.19750E+05  0.63000E+03  0.00000E+00 1
 -0.19500E+05  0.63000E+03  0.00000E+00 1
 -0.20000E+05  0.84000E+03  0.00000E+00 1
 -0.19750E+05  0.84000E+03  0.00000E+00 1
 -0.19500E+05  0.84000E+03  0.00000E+00 1
 ZONE I=           3 ,J=           3 , F=POINT
 -0.19500E+05  0.42000E+03  0.00000E+00 1
 -0.19250E+05  0.42000E+03  0.00000E+00 1
 -0.19000E+05  0.42000E+03  0.00000E+00 1
 -0.19500E+05  0.63000E+03  0.00000E+00 1
 -0.19250E+05  0.63000E+03  0.00000E+00 1
 -0.19000E+05  0.63000E+03  0.00000E+00 1
 -0.19500E+05  0.84000E+03  0.00000E+00 1
 -0.19250E+05  0.84000E+03  0.00000E+00 1
 -0.19000E+05  0.84000E+03  0.00000E+00 1
 ZONE I=           3 ,J=           3 , F=POINT
 -0.19000E+05  0.42000E+03  0.00000E+00 1
 -0.18750E+05  0.42000E+03  0.00000E+00 1
 -0.18500E+05  0.42000E+03  0.00000E+00 1
 -0.19000E+05  0.63000E+03  0.00000E+00 1
 -0.18750E+05  0.63000E+03  0.00000E+00 1
 -0.18500E+05  0.63000E+03  0.00000E+00 1
 -0.19000E+05  0.84000E+03  0.00000E+00 1
 -0.18750E+05  0.84000E+03  0.00000E+00 1
 -0.18500E+05  0.84000E+03  0.00000E+00 1
 ZONE I=           3 ,J=           3 , F=POINT
 -0.18500E+05  0.42000E+03  0.00000E+00 1
 -0.18250E+05  0.42000E+03  0.00000E+00 1
 -0.18000E+05  0.42000E+03  0.00000E+00 1
 -0.18500E+05  0.63000E+03  0.00000E+00 1
 -0.18250E+05  0.63000E+03  0.00000E+00 1
 -0.18000E+05  0.63000E+03  0.00000E+00 1
 -0.18500E+05  0.84000E+03  0.00000E+00 1
 -0.18250E+05  0.84000E+03  0.00000E+00 1
 -0.18000E+05  0.84000E+03  0.00000E+00 1
 ZONE I=           3 ,J=           3 , F=POINT
 -0.18000E+05  0.42000E+03  0.00000E+00 1
 -0.17750E+05  0.42000E+03  0.00000E+00 1
 -0.17500E+05  0.42000E+03  0.00000E+00 1
 -0.18000E+05  0.63000E+03  0.00000E+00 1
 -0.17750E+05  0.63000E+03  0.00000E+00 1
 -0.17500E+05  0.63000E+03  0.00000E+00 1
 -0.18000E+05  0.84000E+03  0.00000E+00 1
 -0.17750E+05  0.84000E+03  0.00000E+00 1
 -0.17500E+05  0.84000E+03  0.00000E+00 1
 ZONE I=           3 ,J=           3 , F=POINT
 -0.17500E+05  0.42000E+03  0.00000E+00 1
 -0.17250E+05  0.42000E+03  0.00000E+00 1
 -0.17000E+05  0.42000E+03  0.00000E+00 1
 -0.17500E+05  0.63000E+03  0.00000E+00 1
 -0.17250E+05  0.63000E+03  0.00000E+00 1
 -0.17000E+05  0.63000E+03  0.00000E+00 1
 -0.17500E+05  0.84000E+03  0.00000E+00 1
 -0.17250E+05  0.84000E+03  0.00000E+00 1
 -0.17000E+05  0.84000E+03  0.00000E+00 1
 ZONE I=           3 ,J=           3 , F=POINT
 -0.17000E+05  0.42000E+03  0.00000E+00 1
 -0.16750E+05  0.42000E+03  0.00000E+00 1
 -0.16500E+05  0.42000E+03  0.00000E+00 1
 -0.17000E+05  0.63000E+03  0.00000E+00 1
 -0.16750E+05  0.63000E+03  0.00000E+00 1
 -0.16500E+05  0.63000E+03  0.00000E+00 1
 -0.17000E+05  0.84000E+03  0.00000E+00 1
 -0.16750E+05  0.84000E+03  0.00000E+00 1
 -0.16500E+05  0.84000E+03  0.00000E+00 1
 ZONE I=           3 ,J=           3 , F=POINT
 -0.16500E+05  0.42000E+03  0.00000E+00 1
 -0.16250E+05  0.42000E+03  0.00000E+00 1
 -0.16000E+05  0.42000E+03  0.00000E+00 1
 -0.16500E+05  0.63000E+03  0.00000E+00 1
 -0.16250E+05  0.63000E+03  0.00000E+00 1
 -0.16000E+05  0.63000E+03  0.00000E+00 1
 -0.16500E+05  0.84000E+03  0.00000E+00 1
 -0.16250E+05  0.84000E+03  0.00000E+00 1
 -0.16000E+05  0.84000E+03  0.00000E+00 1
 ZONE I=           3 ,J=           3 , F=POINT
 -0.16000E+05  0.42000E+03  0.00000E+00 1
 -0.15750E+05  0.42001E+03  0.00000E+00 1
 -0.15500E+05  0.42001E+03  0.00000E+00 1
 -0.16000E+05  0.63000E+03  0.00000E+00 1
 -0.15750E+05  0.63000E+03  0.00000E+00 1
 -0.15500E+05  0.63000E+03  0.00000E+00 1
 -0.16000E+05  0.84000E+03  0.00000E+00 1
 -0.15750E+05  0.84000E+03  0.00000E+00 1
 -0.15500E+05  0.84000E+03  0.00000E+00 1
 ZONE I=           3 ,J=           3 , F=POINT
 -0.15500E+05  0.42001E+03  0.00000E+00 1
 -0.15250E+05  0.42001E+03  0.00000E+00 1
 -0.15000E+05  0.42001E+03  0.00000E+00 1
 -0.15500E+05  0.63000E+03  0.00000E+00 1
 -0.15250E+05  0.63000E+03  0.00000E+00 1
 -0.15000E+05  0.63000E+03  0.00000E+00 1
 -0.15500E+05  0.84000E+03  0.00000E+00 1
 -0.15250E+05  0.84000E+03  0.00000E+00 1
 -0.15000E+05  0.84000E+03  0.00000E+00 1
 ZONE I=           3 ,J=           3 , F=POINT
 -0.15000E+05  0.42001E+03  0.00000E+00 1
 -0.14750E+05  0.42001E+03  0.00000E+00 1
 -0.14500E+05  0.42001E+03  0.00000E+00 1
 -0.15000E+05  0.63000E+03  0.00000E+00 1
 -0.14750E+05  0.63000E+03  0.00000E+00 1
 -0.14500E+05  0.63000E+03  0.00000E+00 1
 -0.15000E+05  0.84000E+03  0.00000E+00 1
 -0.14750E+05  0.84000E+03  0.00000E+00 1
 -0.14500E+05  0.84000E+03  0.00000E+00 1
 ZONE I=           3 ,J=           3 , F=POINT
 -0.14500E+05  0.42001E+03  0.00000E+00 1
 -0.14250E+05  0.42001E+03  0.00000E+00 1
 -0.14000E+05  0.42001E+03  0.00000E+00 1
 -0.14500E+05  0.63000E+03  0.00000E+00 1
 -0.14250E+05  0.63001E+03  0.00000E+00 1
 -0.14000E+05  0.63001E+03  0.00000E+00 1
 -0.14500E+05  0.84000E+03  0.00000E+00 1
 -0.14250E+05  0.84000E+03  0.00000E+00 1
 -0.14000E+05  0.84001E+03  0.00000E+00 1
 ZONE I=           3 ,J=           3 , F=POINT
 -0.14000E+05  0.42001E+03  0.00000E+00 1
 -0.13750E+05  0.42002E+03  0.00000E+00 1
 -0.13500E+05  0.42004E+03  0.00000E+00 1
 -0.14000E+05  0.63001E+03  0.00000E+00 1
 -0.13750E+05  0.63002E+03  0.00000E+00 1
 -0.13500E+05  0.63003E+03  0.00000E+00 1
 -0.14000E+05  0.84001E+03  0.00000E+00 1
 -0.13750E+05  0.84001E+03  0.00000E+00 1
 -0.13500E+05  0.84002E+03  0.00000E+00 1
 ZONE I=           3 ,J=           3 , F=POINT
 -0.13500E+05  0.42004E+03  0.00000E+00 1
 -0.13250E+05  0.42007E+03  0.00000E+00 1
 -0.13000E+05  0.42011E+03  0.00000E+00 1
 -0.13500E+05  0.63003E+03  0.00000E+00 1
 -0.13250E+05  0.63005E+03  0.00000E+00 1
 -0.13000E+05  0.63007E+03  0.00000E+00 1
 -0.13500E+05  0.84002E+03  0.00000E+00 1
 -0.13250E+05  0.84003E+03  0.00000E+00 1
 -0.13000E+05  0.84004E+03  0.00000E+00 1
 ZONE I=           3 ,J=           3 , F=POINT
 -0.13000E+05  0.42011E+03  0.00000E+00 1
 -0.12750E+05  0.42017E+03  0.00000E+00 1
 -0.12500E+05  0.42023E+03  0.00000E+00 1
 -0.13000E+05  0.63007E+03  0.00000E+00 1
 -0.12750E+05  0.63012E+03  0.00000E+00 1
 -0.12500E+05  0.63016E+03  0.00000E+00 1
 -0.13000E+05  0.84004E+03  0.00000E+00 1
 -0.12750E+05  0.84006E+03  0.00000E+00 1
 -0.12500E+05  0.84008E+03  0.00000E+00 1
 ZONE I=           3 ,J=           3 , F=POINT
 -0.12500E+05  0.42023E+03  0.00000E+00 1
 -0.12250E+05  0.42030E+03  0.00000E+00 1
 -0.12000E+05  0.42037E+03  0.00000E+00 1
 -0.12500E+05  0.63016E+03  0.00000E+00 1
 -0.12250E+05  0.63020E+03  0.00000E+00 1
 -0.12000E+05  0.63025E+03  0.00000E+00 1
 -0.12500E+05  0.84008E+03  0.00000E+00 1
 -0.12250E+05  0.84011E+03  0.00000E+00 1
 -0.12000E+05  0.84013E+03  0.00000E+00 1
 ZONE I=           3 ,J=           3 , F=POINT
 -0.12000E+05  0.42037E+03  0.00000E+00 1
 -0.11750E+05  0.42042E+03  0.00000E+00 1
 -0.11500E+05  0.42046E+03  0.00000E+00 1
 -0.12000E+05  0.63025E+03  0.00000E+00 1
 -0.11750E+05  0.63028E+03  0.00000E+00 1
 -0.11500E+05  0.63031E+03  0.00000E+00 1
 -0.12000E+05  0.84013E+03  0.00000E+00 1
 -0.11750E+05  0.84014E+03  0.00000E+00 1
 -0.11500E+05  0.84015E+03  0.00000E+00 1
 ZONE I=           3 ,J=           3 , F=POINT
 -0.11500E+05  0.42046E+03  0.00000E+00 1
 -0.11250E+05  0.42044E+03  0.00000E+00 1
 -0.11000E+05  0.42042E+03  0.00000E+00 1
 -0.11500E+05  0.63031E+03  0.00000E+00 1
 -0.11250E+05  0.63029E+03  0.00000E+00 1
 -0.11000E+05  0.63028E+03  0.00000E+00 1
 -0.11500E+05  0.84015E+03  0.00000E+00 1
 -0.11250E+05  0.84015E+03  0.00000E+00 1
 -0.11000E+05  0.84014E+03  0.00000E+00 1
 ZONE I=           3 ,J=           3 , F=POINT
 -0.11000E+05  0.42042E+03  0.00000E+00 1
 -0.10750E+05  0.42035E+03  0.00000E+00 1
 -0.10500E+05  0.42028E+03  0.00000E+00 1
 -0.11000E+05  0.63028E+03  0.00000E+00 1
 -0.10750E+05  0.63024E+03  0.00000E+00 1
 -0.10500E+05  0.63020E+03  0.00000E+00 1
 -0.11000E+05  0.84014E+03  0.00000E+00 1
 -0.10750E+05  0.84013E+03  0.00000E+00 1
 -0.10500E+05  0.84013E+03  0.00000E+00 1
 ZONE I=           3 ,J=           3 , F=POINT
 -0.10500E+05  0.42028E+03  0.00000E+00 1
 -0.10250E+05  0.42032E+03  0.00000E+00 1
 -0.99997E+04  0.42036E+03  0.00000E+00 1
 -0.10500E+05  0.63020E+03  0.00000E+00 1
 -0.10250E+05  0.63024E+03  0.00000E+00 1
 -0.99998E+04  0.63028E+03  0.00000E+00 1
 -0.10500E+05  0.84013E+03  0.00000E+00 1
 -0.10250E+05  0.84017E+03  0.00000E+00 1
 -0.99998E+04  0.84021E+03  0.00000E+00 1
 ZONE I=           3 ,J=           3 , F=POINT
 -0.99997E+04  0.42036E+03  0.00000E+00 1
 -0.97493E+04  0.42076E+03  0.00000E+00 1
 -0.94989E+04  0.42116E+03  0.00000E+00 1
 -0.99998E+04  0.63028E+03  0.00000E+00 1
 -0.97495E+04  0.63057E+03  0.00000E+00 1
 -0.94992E+04  0.63085E+03  0.00000E+00 1
 -0.99998E+04  0.84021E+03  0.00000E+00 1
 -0.97497E+04  0.84038E+03  0.00000E+00 1
 -0.94996E+04  0.84055E+03  0.00000E+00 1
 ZONE I=           3 ,J=           3 , F=POINT
 -0.94989E+04  0.42116E+03  0.00000E+00 1
 -0.92484E+04  0.42215E+03  0.00000E+00 1
 -0.89979E+04  0.42313E+03  0.00000E+00 1
 -0.94992E+04  0.63085E+03  0.00000E+00 1
 -0.92489E+04  0.63152E+03  0.00000E+00 1
 -0.89986E+04  0.63218E+03  0.00000E+00 1
 -0.94996E+04  0.84055E+03  0.00000E+00 1
 -0.92494E+04  0.84089E+03  0.00000E+00 1
 -0.89993E+04  0.84123E+03  0.00000E+00 1
 ZONE I=           3 ,J=           3 , F=POINT
 -0.89979E+04  0.42313E+03  0.00000E+00 1
 -0.87477E+04  0.42460E+03  0.00000E+00 1
 -0.84975E+04  0.42607E+03  0.00000E+00 1
 -0.89986E+04  0.63218E+03  0.00000E+00 1
 -0.87485E+04  0.63315E+03  0.00000E+00 1
 -0.84983E+04  0.63412E+03  0.00000E+00 1
 -0.89993E+04  0.84123E+03  0.00000E+00 1
 -0.87493E+04  0.84170E+03  0.00000E+00 1
 -0.84992E+04  0.84217E+03  0.00000E+00 1
 ZONE I=           3 ,J=           3 , F=POINT
 -0.84975E+04  0.42607E+03  0.00000E+00 1
 -0.82479E+04  0.42745E+03  0.00000E+00 1
 -0.79983E+04  0.42883E+03  0.00000E+00 1
 -0.84983E+04  0.63412E+03  0.00000E+00 1
 -0.82486E+04  0.63501E+03  0.00000E+00 1
 -0.79989E+04  0.63590E+03  0.00000E+00 1
 -0.84992E+04  0.84217E+03  0.00000E+00 1
 -0.82494E+04  0.84257E+03  0.00000E+00 1
 -0.79995E+04  0.84298E+03  0.00000E+00 1
 ZONE I=           3 ,J=           3 , F=POINT
 -0.79983E+04  0.42883E+03  0.00000E+00 1
 -0.77493E+04  0.42928E+03  0.00000E+00 1
 -0.75004E+04  0.42973E+03  0.00000E+00 1
 -0.79989E+04  0.63590E+03  0.00000E+00 1
 -0.77496E+04  0.63619E+03  0.00000E+00 1
 -0.75003E+04  0.63647E+03  0.00000E+00 1
 -0.79995E+04  0.84298E+03  0.00000E+00 1
 -0.77498E+04  0.84309E+03  0.00000E+00 1
 -0.75001E+04  0.84321E+03  0.00000E+00 1
 ZONE I=           3 ,J=           3 , F=POINT
 -0.75004E+04  0.42973E+03  0.00000E+00 1
 -0.72514E+04  0.42880E+03  0.00000E+00 1
 -0.70025E+04  0.42787E+03  0.00000E+00 1
 -0.75003E+04  0.63647E+03  0.00000E+00 1
 -0.72509E+04  0.63587E+03  0.00000E+00 1
 -0.70016E+04  0.63528E+03  0.00000E+00 1
 -0.75001E+04  0.84321E+03  0.00000E+00 1
 -0.72504E+04  0.84295E+03  0.00000E+00 1
 -0.70006E+04  0.84270E+03  0.00000E+00 1
 ZONE I=           3 ,J=           3 , F=POINT
 -0.70025E+04  0.42787E+03  0.00000E+00 1
 -0.67524E+04  0.42626E+03  0.00000E+00 1
 -0.65023E+04  0.42465E+03  0.00000E+00 1
 -0.70016E+04  0.63528E+03  0.00000E+00 1
 -0.67514E+04  0.63430E+03  0.00000E+00 1
 -0.65013E+04  0.63332E+03  0.00000E+00 1
 -0.70006E+04  0.84270E+03  0.00000E+00 1
 -0.67505E+04  0.84234E+03  0.00000E+00 1
 -0.65004E+04  0.84199E+03  0.00000E+00 1
 ZONE I=           3 ,J=           3 , F=POINT
 -0.65023E+04  0.42465E+03  0.00000E+00 1
 -0.62501E+04  0.42442E+03  0.00000E+00 1
 -0.59980E+04  0.42419E+03  0.00000E+00 1
 -0.65013E+04  0.63332E+03  0.00000E+00 1
 -0.62499E+04  0.63329E+03  0.00000E+00 1
 -0.59985E+04  0.63327E+03  0.00000E+00 1
 -0.65004E+04  0.84199E+03  0.00000E+00 1
 -0.62497E+04  0.84217E+03  0.00000E+00 1
 -0.59990E+04  0.84235E+03  0.00000E+00 1
 ZONE I=           3 ,J=           3 , F=POINT
 -0.59980E+04  0.42419E+03  0.00000E+00 1
 -0.57446E+04  0.42776E+03  0.00000E+00 1
 -0.54912E+04  0.43132E+03  0.00000E+00 1
 -0.59985E+04  0.63327E+03  0.00000E+00 1
 -0.57463E+04  0.63572E+03  0.00000E+00 1
 -0.54941E+04  0.63818E+03  0.00000E+00 1
 -0.59990E+04  0.84235E+03  0.00000E+00 1
 -0.57480E+04  0.84369E+03  0.00000E+00 1
 -0.54970E+04  0.84503E+03  0.00000E+00 1
 ZONE I=           3 ,J=           3 , F=POINT
 -0.54912E+04  0.43132E+03  0.00000E+00 1
 -0.52388E+04  0.43923E+03  0.00000E+00 1
 -0.49865E+04  0.44715E+03  0.00000E+00 1
 -0.54941E+04  0.63818E+03  0.00000E+00 1
 -0.52426E+04  0.64341E+03  0.00000E+00 1
 -0.49911E+04  0.64865E+03  0.00000E+00 1
 -0.54970E+04  0.84503E+03  0.00000E+00 1
 -0.52464E+04  0.84759E+03  0.00000E+00 1
 -0.49958E+04  0.85015E+03  0.00000E+00 1
 ZONE I=           3 ,J=           3 , F=POINT
 -0.49865E+04  0.44715E+03  0.00000E+00 1
 -0.47372E+04  0.45671E+03  0.00000E+00 1
 -0.44880E+04  0.46627E+03  0.00000E+00 1
 -0.49911E+04  0.64865E+03  0.00000E+00 1
 -0.47416E+04  0.65489E+03  0.00000E+00 1
 -0.44921E+04  0.66114E+03  0.00000E+00 1
 -0.49958E+04  0.85015E+03  0.00000E+00 1
 -0.47461E+04  0.85308E+03  0.00000E+00 1
 -0.44963E+04  0.85601E+03  0.00000E+00 1
 ZONE I=           3 ,J=           3 , F=POINT
 -0.44880E+04  0.46627E+03  0.00000E+00 1
 -0.42418E+04  0.47273E+03  0.00000E+00 1
 -0.39956E+04  0.47918E+03  0.00000E+00 1
 -0.44921E+04  0.66114E+03  0.00000E+00 1
 -0.42446E+04  0.66532E+03  0.00000E+00 1
 -0.39972E+04  0.66950E+03  0.00000E+00 1
 -0.44963E+04  0.85601E+03  0.00000E+00 1
 -0.42475E+04  0.85792E+03  0.00000E+00 1
 -0.39987E+04  0.85982E+03  0.00000E+00 1
 ZONE I=           3 ,J=           3 , F=POINT
 -0.39956E+04  0.47918E+03  0.00000E+00 1
 -0.37508E+04  0.47866E+03  0.00000E+00 1
 -0.35060E+04  0.47814E+03  0.00000E+00 1
 -0.39972E+04  0.66950E+03  0.00000E+00 1
 -0.37506E+04  0.66914E+03  0.00000E+00 1
 -0.35040E+04  0.66878E+03  0.00000E+00 1
 -0.39987E+04  0.85982E+03  0.00000E+00 1
 -0.37503E+04  0.85962E+03  0.00000E+00 1
 -0.35019E+04  0.85942E+03  0.00000E+00 1
 ZONE I=           3 ,J=           3 , F=POINT
 -0.35060E+04  0.47814E+03  0.00000E+00 1
 -0.32600E+04  0.47047E+03  0.00000E+00 1
 -0.30140E+04  0.46280E+03  0.00000E+00 1
 -0.35040E+04  0.66878E+03  0.00000E+00 1
 -0.32565E+04  0.66383E+03  0.00000E+00 1
 -0.30090E+04  0.65888E+03  0.00000E+00 1
 -0.35019E+04  0.85942E+03  0.00000E+00 1
 -0.32529E+04  0.85718E+03  0.00000E+00 1
 -0.30040E+04  0.85495E+03  0.00000E+00 1
 ZONE I=           3 ,J=           3 , F=POINT
 -0.30140E+04  0.46280E+03  0.00000E+00 1
 -0.27631E+04  0.45282E+03  0.00000E+00 1
 -0.25122E+04  0.44283E+03  0.00000E+00 1
 -0.30090E+04  0.65888E+03  0.00000E+00 1
 -0.27583E+04  0.65254E+03  0.00000E+00 1
 -0.25076E+04  0.64621E+03  0.00000E+00 1
 -0.30040E+04  0.85495E+03  0.00000E+00 1
 -0.27535E+04  0.85227E+03  0.00000E+00 1
 -0.25031E+04  0.84959E+03  0.00000E+00 1
 ZONE I=           3 ,J=           3 , F=POINT
 -0.25122E+04  0.44283E+03  0.00000E+00 1
 -0.22551E+04  0.43897E+03  0.00000E+00 1
 -0.19980E+04  0.43511E+03  0.00000E+00 1
 -0.25076E+04  0.64621E+03  0.00000E+00 1
 -0.22531E+04  0.64390E+03  0.00000E+00 1
 -0.19985E+04  0.64159E+03  0.00000E+00 1
 -0.25031E+04  0.84959E+03  0.00000E+00 1
 -0.22511E+04  0.84882E+03  0.00000E+00 1
 -0.19991E+04  0.84806E+03  0.00000E+00 1
 ZONE I=           3 ,J=           3 , F=POINT
 -0.19980E+04  0.43511E+03  0.00000E+00 1
 -0.17400E+04  0.44322E+03  0.00000E+00 1
 -0.14820E+04  0.45132E+03  0.00000E+00 1
 -0.19985E+04  0.64159E+03  0.00000E+00 1
 -0.17435E+04  0.64694E+03  0.00000E+00 1
 -0.14884E+04  0.65229E+03  0.00000E+00 1
 -0.19991E+04  0.84806E+03  0.00000E+00 1
 -0.17469E+04  0.85065E+03  0.00000E+00 1
 -0.14948E+04  0.85325E+03  0.00000E+00 1
 ZONE I=           3 ,J=           3 , F=POINT
 -0.14820E+04  0.45132E+03  0.00000E+00 1
 -0.12300E+04  0.46837E+03  0.00000E+00 1
 -0.97803E+03  0.48542E+03  0.00000E+00 1
 -0.14884E+04  0.65229E+03  0.00000E+00 1
 -0.12371E+04  0.66336E+03  0.00000E+00 1
 -0.98574E+03  0.67444E+03  0.00000E+00 1
 -0.14948E+04  0.85325E+03  0.00000E+00 1
 -0.12441E+04  0.85836E+03  0.00000E+00 1
 -0.99344E+03  0.86346E+03  0.00000E+00 1
 ZONE I=           3 ,J=           3 , F=POINT
 -0.97803E+03  0.48542E+03  0.00000E+00 1
 -0.73233E+03  0.50179E+03  0.00000E+00 1
 -0.48662E+03  0.51817E+03  0.00000E+00 1
 -0.98574E+03  0.67444E+03  0.00000E+00 1
 -0.73845E+03  0.68508E+03  0.00000E+00 1
 -0.49117E+03  0.69573E+03  0.00000E+00 1
 -0.99344E+03  0.86346E+03  0.00000E+00 1
 -0.74458E+03  0.86837E+03  0.00000E+00 1
 -0.49572E+03  0.87329E+03  0.00000E+00 1
 ZONE I=           3 ,J=           3 , F=POINT
 -0.48662E+03  0.51817E+03  0.00000E+00 1
 -0.24331E+03  0.52482E+03  0.00000E+00 1
 -0.59586E-07  0.53147E+03  0.00000E+00 1
 -0.49117E+03  0.69573E+03  0.00000E+00 1
 -0.24559E+03  0.70006E+03  0.00000E+00 1
 -0.38449E-06  0.70438E+03  0.00000E+00 1
 -0.49572E+03  0.87329E+03  0.00000E+00 1
 -0.24786E+03  0.87530E+03  0.00000E+00 1
 -0.70939E-06  0.87730E+03  0.00000E+00 1
 ZONE I=           3 ,J=           3 , F=POINT
 -0.59586E-07  0.53147E+03  0.00000E+00 1
  0.24331E+03  0.52482E+03  0.00000E+00 1
  0.48662E+03  0.51817E+03  0.00000E+00 1
 -0.38449E-06  0.70438E+03  0.00000E+00 1
  0.24559E+03  0.70006E+03  0.00000E+00 1
  0.49117E+03  0.69573E+03  0.00000E+00 1
 -0.70939E-06  0.87730E+03  0.00000E+00 1
  0.24786E+03  0.87530E+03  0.00000E+00 1
  0.49572E+03  0.87329E+03  0.00000E+00 1
 ZONE I=           3 ,J=           3 , F=POINT
  0.48662E+03  0.51817E+03  0.00000E+00 1
  0.73233E+03  0.50179E+03  0.00000E+00 1
  0.97803E+03  0.48542E+03  0.00000E+00 1
  0.49117E+03  0.69573E+03  0.00000E+00 1
  0.73845E+03  0.68508E+03  0.00000E+00 1
  0.98574E+03  0.67444E+03  0.00000E+00 1
  0.49572E+03  0.87329E+03  0.00000E+00 1
  0.74458E+03  0.86837E+03  0.00000E+00 1
  0.99344E+03  0.86346E+03  0.00000E+00 1
 ZONE I=           3 ,J=           3 , F=POINT
  0.97803E+03  0.48542E+03  0.00000E+00 1
  0.12300E+04  0.46837E+03  0.00000E+00 1
  0.14820E+04  0.45132E+03  0.00000E+00 1
  0.98574E+03  0.67444E+03  0.00000E+00 1
  0.12371E+04  0.66336E+03  0.00000E+00 1
  0.14884E+04  0.65229E+03  0.00000E+00 1
  0.99344E+03  0.86346E+03  0.00000E+00 1
  0.12441E+04  0.85836E+03  0.00000E+00 1
  0.14948E+04  0.85325E+03  0.00000E+00 1
 ZONE I=           3 ,J=           3 , F=POINT
  0.14820E+04  0.45132E+03  0.00000E+00 1
  0.17400E+04  0.44322E+03  0.00000E+00 1
  0.19980E+04  0.43511E+03  0.00000E+00 1
  0.14884E+04  0.65229E+03  0.00000E+00 1
  0.17435E+04  0.64694E+03  0.00000E+00 1
  0.19985E+04  0.64159E+03  0.00000E+00 1
  0.14948E+04  0.85325E+03  0.00000E+00 1
  0.17469E+04  0.85065E+03  0.00000E+00 1
  0.19991E+04  0.84806E+03  0.00000E+00 1
 ZONE I=           3 ,J=           3 , F=POINT
  0.19980E+04  0.43511E+03  0.00000E+00 1
  0.22551E+04  0.43897E+03  0.00000E+00 1
  0.25122E+04  0.44283E+03  0.00000E+00 1
  0.19985E+04  0.64159E+03  0.00000E+00 1
  0.22531E+04  0.64390E+03  0.00000E+00 1
  0.25076E+04  0.64621E+03  0.00000E+00 1
  0.19991E+04  0.84806E+03  0.00000E+00 1
  0.22511E+04  0.84882E+03  0.00000E+00 1
  0.25031E+04  0.84959E+03  0.00000E+00 1
 ZONE I=           3 ,J=           3 , F=POINT
  0.25122E+04  0.44283E+03  0.00000E+00 1
  0.27631E+04  0.45282E+03  0.00000E+00 1
  0.30140E+04  0.46280E+03  0.00000E+00 1
  0.25076E+04  0.64621E+03  0.00000E+00 1
  0.27583E+04  0.65254E+03  0.00000E+00 1
  0.30090E+04  0.65888E+03  0.00000E+00 1
  0.25031E+04  0.84959E+03  0.00000E+00 1
  0.27535E+04  0.85227E+03  0.00000E+00 1
  0.30040E+04  0.85495E+03  0.00000E+00 1
 ZONE I=           3 ,J=           3 , F=POINT
  0.30140E+04  0.46280E+03  0.00000E+00 1
  0.32600E+04  0.47047E+03  0.00000E+00 1
  0.35060E+04  0.47814E+03  0.00000E+00 1
  0.30090E+04  0.65888E+03  0.00000E+00 1
  0.32565E+04  0.66383E+03  0.00000E+00 1
  0.35040E+04  0.66878E+03  0.00000E+00 1
  0.30040E+04  0.85495E+03  0.00000E+00 1
  0.32529E+04  0.85718E+03  0.00000E+00 1
  0.35019E+04  0.85942E+03  0.00000E+00 1
 ZONE I=           3 ,J=           3 , F=POINT
  0.35060E+04  0.47814E+03  0.00000E+00 1
  0.37508E+04  0.47866E+03  0.00000E+00 1
  0.39956E+04  0.47918E+03  0.00000E+00 1
  0.35040E+04  0.66878E+03  0.00000E+00 1
  0.37506E+04  0.66914E+03  0.00000E+00 1
  0.39972E+04  0.66950E+03  0.00000E+00 1
  0.35019E+04  0.85942E+03  0.00000E+00 1
  0.37503E+04  0.85962E+03  0.00000E+00 1
  0.39987E+04  0.85982E+03  0.00000E+00 1
 ZONE I=           3 ,J=           3 , F=POINT
  0.39956E+04  0.47918E+03  0.00000E+00 1
  0.42418E+04  0.47273E+03  0.00000E+00 1
  0.44880E+04  0.46627E+03  0.00000E+00 1
  0.39972E+04  0.66950E+03  0.00000E+00 1
  0.42446E+04  0.66532E+03  0.00000E+00 1
  0.44921E+04  0.66114E+03  0.00000E+00 1
  0.39987E+04  0.85982E+03  0.00000E+00 1
  0.42475E+04  0.85792E+03  0.00000E+00 1
  0.44963E+04  0.85601E+03  0.00000E+00 1
 ZONE I=           3 ,J=           3 , F=POINT
  0.44880E+04  0.46627E+03  0.00000E+00 1
  0.47372E+04  0.45671E+03  0.00000E+00 1
  0.49865E+04  0.44715E+03  0.00000E+00 1
  0.44921E+04  0.66114E+03  0.00000E+00 1
  0.47416E+04  0.65489E+03  0.00000E+00 1
  0.49911E+04  0.64865E+03  0.00000E+00 1
  0.44963E+04  0.85601E+03  0.00000E+00 1
  0.47461E+04  0.85308E+03  0.00000E+00 1
  0.49958E+04  0.85015E+03  0.00000E+00 1
 ZONE I=           3 ,J=           3 , F=POINT
  0.49865E+04  0.44715E+03  0.00000E+00 1
  0.52388E+04  0.43923E+03  0.00000E+00 1
  0.54912E+04  0.43132E+03  0.00000E+00 1
  0.49911E+04  0.64865E+03  0.00000E+00 1
  0.52426E+04  0.64341E+03  0.00000E+00 1
  0.54941E+04  0.63818E+03  0.00000E+00 1
  0.49958E+04  0.85015E+03  0.00000E+00 1
  0.52464E+04  0.84759E+03  0.00000E+00 1
  0.54970E+04  0.84503E+03  0.00000E+00 1
 ZONE I=           3 ,J=           3 , F=POINT
  0.54912E+04  0.43132E+03  0.00000E+00 1
  0.57446E+04  0.42776E+03  0.00000E+00 1
  0.59980E+04  0.42419E+03  0.00000E+00 1
  0.54941E+04  0.63818E+03  0.00000E+00 1
  0.57463E+04  0.63572E+03  0.00000E+00 1
  0.59985E+04  0.63327E+03  0.00000E+00 1
  0.54970E+04  0.84503E+03  0.00000E+00 1
  0.57480E+04  0.84369E+03  0.00000E+00 1
  0.59990E+04  0.84235E+03  0.00000E+00 1
 ZONE I=           3 ,J=           3 , F=POINT
  0.59980E+04  0.42419E+03  0.00000E+00 1
  0.62501E+04  0.42442E+03  0.00000E+00 1
  0.65023E+04  0.42465E+03  0.00000E+00 1
  0.59985E+04  0.63327E+03  0.00000E+00 1
  0.62499E+04  0.63329E+03  0.00000E+00 1
  0.65013E+04  0.63332E+03  0.00000E+00 1
  0.59990E+04  0.84235E+03  0.00000E+00 1
  0.62497E+04  0.84217E+03  0.00000E+00 1
  0.65004E+04  0.84199E+03  0.00000E+00 1
 ZONE I=           3 ,J=           3 , F=POINT
  0.65023E+04  0.42465E+03  0.00000E+00 1
  0.67524E+04  0.42626E+03  0.00000E+00 1
  0.70025E+04  0.42787E+03  0.00000E+00 1
  0.65013E+04  0.63332E+03  0.00000E+00 1
  0.67514E+04  0.63430E+03  0.00000E+00 1
  0.70016E+04  0.63528E+03  0.00000E+00 1
  0.65004E+04  0.84199E+03  0.00000E+00 1
  0.67505E+04  0.84234E+03  0.00000E+00 1
  0.70006E+04  0.84270E+03  0.00000E+00 1
 ZONE I=           3 ,J=           3 , F=POINT
  0.70025E+04  0.42787E+03  0.00000E+00 1
  0.72514E+04  0.42880E+03  0.00000E+00 1
  0.75004E+04  0.42973E+03  0.00000E+00 1
  0.70016E+04  0.63528E+03  0.00000E+00 1
  0.72509E+04  0.63587E+03  0.00000E+00 1
  0.75003E+04  0.63647E+03  0.00000E+00 1
  0.70006E+04  0.84270E+03  0.00000E+00 1
  0.72504E+04  0.84295E+03  0.00000E+00 1
  0.75001E+04  0.84321E+03  0.00000E+00 1
 ZONE I=           3 ,J=           3 , F=POINT
  0.75004E+04  0.42973E+03  0.00000E+00 1
  0.77493E+04  0.42928E+03  0.00000E+00 1
  0.79983E+04  0.42883E+03  0.00000E+00 1
  0.75003E+04  0.63647E+03  0.00000E+00 1
  0.77496E+04  0.63619E+03  0.00000E+00 1
  0.79989E+04  0.63590E+03  0.00000E+00 1
  0.75001E+04  0.84321E+03  0.00000E+00 1
  0.77498E+04  0.84309E+03  0.00000E+00 1
  0.79995E+04  0.84298E+03  0.00000E+00 1
 ZONE I=           3 ,J=           3 , F=POINT
  0.79983E+04  0.42883E+03  0.00000E+00 1
  0.82479E+04  0.42745E+03  0.00000E+00 1
  0.84975E+04  0.42607E+03  0.00000E+00 1
  0.79989E+04  0.63590E+03  0.00000E+00 1
  0.82486E+04  0.63501E+03  0.00000E+00 1
  0.84983E+04  0.63412E+03  0.00000E+00 1
  0.79995E+04  0.84298E+03  0.00000E+00 1
  0.82494E+04  0.84257E+03  0.00000E+00 1
  0.84992E+04  0.84217E+03  0.00000E+00 1
 ZONE I=           3 ,J=           3 , F=POINT
  0.84975E+04  0.42607E+03  0.00000E+00 1
  0.87477E+04  0.42460E+03  0.00000E+00 1
  0.89979E+04  0.42313E+03  0.00000E+00 1
  0.84983E+04  0.63412E+03  0.00000E+00 1
  0.87485E+04  0.63315E+03  0.00000E+00 1
  0.89986E+04  0.63218E+03  0.00000E+00 1
  0.84992E+04  0.84217E+03  0.00000E+00 1
  0.87493E+04  0.84170E+03  0.00000E+00 1
  0.89993E+04  0.84123E+03  0.00000E+00 1
 ZONE I=           3 ,J=           3 , F=POINT
  0.89979E+04  0.42313E+03  0.00000E+00 1
  0.92484E+04  0.42215E+03  0.00000E+00 1
  0.94989E+04  0.42116E+03  0.00000E+00 1
  0.89986E+04  0.63218E+03  0.00000E+00 1
  0.92489E+04  0.63152E+03  0.00000E+00 1
  0.94992E+04  0.63085E+03  0.00000E+00 1
  0.89993E+04  0.84123E+03  0.00000E+00 1
  0.92494E+04  0.84089E+03  0.00000E+00 1
  0.94996E+04  0.84055E+03  0.00000E+00 1
 ZONE I=           3 ,J=           3 , F=POINT
  0.94989E+04  0.42116E+03  0.00000E+00 1
  0.97493E+04  0.42076E+03  0.00000E+00 1
  0.99997E+04  0.42036E+03  0.00000E+00 1
  0.94992E+04  0.63085E+03  0.00000E+00 1
  0.97495E+04  0.63057E+03  0.00000E+00 1
  0.99998E+04  0.63028E+03  0.00000E+00 1
  0.94996E+04  0.84055E+03  0.00000E+00 1
  0.97497E+04  0.84038E+03  0.00000E+00 1
  0.99998E+04  0.84021E+03  0.00000E+00 1
 ZONE I=           3 ,J=           3 , F=POINT
  0.99997E+04  0.42036E+03  0.00000E+00 1
  0.10250E+05  0.42032E+03  0.00000E+00 1
  0.10500E+05  0.42028E+03  0.00000E+00 1
  0.99998E+04  0.63028E+03  0.00000E+00 1
  0.10250E+05  0.63024E+03  0.00000E+00 1
  0.10500E+05  0.63020E+03  0.00000E+00 1
  0.99998E+04  0.84021E+03  0.00000E+00 1
  0.10250E+05  0.84017E+03  0.00000E+00 1
  0.10500E+05  0.84013E+03  0.00000E+00 1
 ZONE I=           3 ,J=           3 , F=POINT
  0.10500E+05  0.42028E+03  0.00000E+00 1
  0.10750E+05  0.42035E+03  0.00000E+00 1
  0.11000E+05  0.42042E+03  0.00000E+00 1