  TITLE = "SEM Quad mesh" 
  VARIABLES = "x", "y", "z", "material ID"
 ZONE I=           3 ,J=           3 , F=POINT
 -0.23989E+05  0.84952E+03  0.00000E+00 1
 -0.23488E+05  0.84875E+03  0.00000E+00 1
 -0.22987E+05  0.84798E+03  0.00000E+00 1
 -0.23990E+05  0.12701E+04  0.00000E+00 1
 -0.23489E+05  0.12693E+04  0.00000E+00 1
 -0.22988E+05  0.12684E+04  0.00000E+00 1
 -0.23990E+05  0.16907E+04  0.00000E+00 1
 -0.23490E+05  0.16898E+04  0.00000E+00 1
 -0.22989E+05  0.16889E+04  0.00000E+00 1
 ZONE I=           3 ,J=           3 , F=POINT
 -0.22987E+05  0.84798E+03  0.00000E+00 1
 -0.22490E+05  0.84596E+03  0.00000E+00 1
 -0.21993E+05  0.84393E+03  0.00000E+00 1
 -0.22988E+05  0.12684E+04  0.00000E+00 1
 -0.22491E+05  0.12663E+04  0.00000E+00 1
 -0.21994E+05  0.12642E+04  0.00000E+00 1
 -0.22989E+05  0.16889E+04  0.00000E+00 1
 -0.22492E+05  0.16867E+04  0.00000E+00 1
 -0.21994E+05  0.16845E+04  0.00000E+00 1
 ZONE I=           3 ,J=           3 , F=POINT
 -0.21993E+05  0.84393E+03  0.00000E+00 1
 -0.21496E+05  0.84254E+03  0.00000E+00 1
 -0.20998E+05  0.84115E+03  0.00000E+00 1
 -0.21994E+05  0.12642E+04  0.00000E+00 1
 -0.21496E+05  0.12627E+04  0.00000E+00 1
 -0.20998E+05  0.12613E+04  0.00000E+00 1
 -0.21994E+05  0.16845E+04  0.00000E+00 1
 -0.21496E+05  0.16829E+04  0.00000E+00 1
 -0.20998E+05  0.16814E+04  0.00000E+00 1
 ZONE I=           3 ,J=           3 , F=POINT
 -0.20998E+05  0.84115E+03  0.00000E+00 1
 -0.20499E+05  0.84068E+03  0.00000E+00 1
 -0.20000E+05  0.84021E+03  0.00000E+00 1
 -0.20998E+05  0.12613E+04  0.00000E+00 1
 -0.20499E+05  0.12607E+04  0.00000E+00 1
 -0.20000E+05  0.12602E+04  0.00000E+00 1
 -0.20998E+05  0.16814E+04  0.00000E+00 1
 -0.20499E+05  0.16808E+04  0.00000E+00 1
 -0.20000E+05  0.16803E+04  0.00000E+00 1
 ZONE I=           3 ,J=           3 , F=POINT
 -0.20000E+05  0.84021E+03  0.00000E+00 1
 -0.19500E+05  0.84012E+03  0.00000E+00 1
 -0.19000E+05  0.84002E+03  0.00000E+00 1
 -0.20000E+05  0.12602E+04  0.00000E+00 1
 -0.19500E+05  0.12601E+04  0.00000E+00 1
 -0.19000E+05  0.12600E+04  0.00000E+00 1
 -0.20000E+05  0.16803E+04  0.00000E+00 1
 -0.19500E+05  0.16801E+04  0.00000E+00 1
 -0.19000E+05  0.16800E+04  0.00000E+00 1
 ZONE I=           3 ,J=           3 , F=POINT
 -0.19000E+05  0.84002E+03  0.00000E+00 1
 -0.18500E+05  0.84001E+03  0.00000E+00 1
 -0.18000E+05  0.84000E+03  0.00000E+00 1
 -0.19000E+05  0.12600E+04  0.00000E+00 1
 -0.18500E+05  0.12600E+04  0.00000E+00 1
 -0.18000E+05  0.12600E+04  0.00000E+00 1
 -0.19000E+05  0.16800E+04  0.00000E+00 1
 -0.18500E+05  0.16800E+04  0.00000E+00 1
 -0.18000E+05  0.16800E+04  0.00000E+00 1
 ZONE I=           3 ,J=           3 , F=POINT
 -0.18000E+05  0.84000E+03  0.00000E+00 1
 -0.17500E+05  0.84000E+03  0.00000E+00 1
 -0.17000E+05  0.84000E+03  0.00000E+00 1
 -0.18000E+05  0.12600E+04  0.00000E+00 1
 -0.17500E+05  0.12600E+04  0.00000E+00 1
 -0.17000E+05  0.12600E+04  0.00000E+00 1
 -0.18000E+05  0.16800E+04  0.00000E+00 1
 -0.17500E+05  0.16800E+04  0.00000E+00 1
 -0.17000E+05  0.16800E+04  0.00000E+00 1
 ZONE I=           3 ,J=           3 , F=POINT
 -0.17000E+05  0.84000E+03  0.00000E+00 1
 -0.16500E+05  0.84000E+03  0.00000E+00 1
 -0.16000E+05  0.84000E+03  0.00000E+00 1
 -0.17000E+05  0.12600E+04  0.00000E+00 1
 -0.16500E+05  0.12600E+04  0.00000E+00 1
 -0.16000E+05  0.12600E+04  0.00000E+00 1
 -0.17000E+05  0.16800E+04  0.00000E+00 1
 -0.16500E+05  0.16800E+04  0.00000E+00 1
 -0.16000E+05  0.16800E+04  0.00000E+00 1
 ZONE I=           3 ,J=           3 , F=POINT
 -0.16000E+05  0.84000E+03  0.00000E+00 1
 -0.15500E+05  0.84001E+03  0.00000E+00 1
 -0.15000E+05  0.84001E+03  0.00000E+00 1
 -0.16000E+05  0.12600E+04  0.00000E+00 1
 -0.15500E+05  0.12600E+04  0.00000E+00 1
 -0.15000E+05  0.12600E+04  0.00000E+00 1
 -0.16000E+05  0.16800E+04  0.00000E+00 1
 -0.15500E+05  0.16800E+04  0.00000E+00 1
 -0.15000E+05  0.16800E+04  0.00000E+00 1
 ZONE I=           3 ,J=           3 , F=POINT
 -0.15000E+05  0.84001E+03  0.00000E+00 1
 -0.14500E+05  0.84003E+03  0.00000E+00 1
 -0.14000E+05  0.84004E+03  0.00000E+00 1
 -0.15000E+05  0.12600E+04  0.00000E+00 1
 -0.14500E+05  0.12600E+04  0.00000E+00 1
 -0.14000E+05  0.12600E+04  0.00000E+00 1
 -0.15000E+05  0.16800E+04  0.00000E+00 1
 -0.14500E+05  0.16800E+04  0.00000E+00 1
 -0.14000E+05  0.16800E+04  0.00000E+00 1
 ZONE I=           3 ,J=           3 , F=POINT
 -0.14000E+05  0.84004E+03  0.00000E+00 1
 -0.13500E+05  0.84010E+03  0.00000E+00 1
 -0.13000E+05  0.84015E+03  0.00000E+00 1
 -0.14000E+05  0.12600E+04  0.00000E+00 1
 -0.13500E+05  0.12601E+04  0.00000E+00 1
 -0.13000E+05  0.12601E+04  0.00000E+00 1
 -0.14000E+05  0.16800E+04  0.00000E+00 1
 -0.13500E+05  0.16800E+04  0.00000E+00 1
 -0.13000E+05  0.16801E+04  0.00000E+00 1
 ZONE I=           3 ,J=           3 , F=POINT
 -0.13000E+05  0.84015E+03  0.00000E+00 1
 -0.12500E+05  0.84024E+03  0.00000E+00 1
 -0.12000E+05  0.84033E+03  0.00000E+00 1
 -0.13000E+05  0.12601E+04  0.00000E+00 1
 -0.12500E+05  0.12602E+04  0.00000E+00 1
 -0.12000E+05  0.12602E+04  0.00000E+00 1
 -0.13000E+05  0.16801E+04  0.00000E+00 1
 -0.12500E+05  0.16801E+04  0.00000E+00 1
 -0.12000E+05  0.16801E+04  0.00000E+00 1
 ZONE I=           3 ,J=           3 , F=POINT
 -0.12000E+05  0.84033E+03  0.00000E+00 1
 -0.11500E+05  0.84041E+03  0.00000E+00 1
 -0.11000E+05  0.84048E+03  0.00000E+00 1
 -0.12000E+05  0.12602E+04  0.00000E+00 1
 -0.11500E+05  0.12603E+04  0.00000E+00 1
 -0.11000E+05  0.12604E+04  0.00000E+00 1
 -0.12000E+05  0.16801E+04  0.00000E+00 1
 -0.11500E+05  0.16802E+04  0.00000E+00 1
 -0.11000E+05  0.16802E+04  0.00000E+00 1
 ZONE I=           3 ,J=           3 , F=POINT
 -0.11000E+05  0.84048E+03  0.00000E+00 1
 -0.10499E+05  0.84086E+03  0.00000E+00 1
 -0.99987E+04  0.84123E+03  0.00000E+00 1
 -0.11000E+05  0.12604E+04  0.00000E+00 1
 -0.10499E+05  0.12607E+04  0.00000E+00 1
 -0.99991E+04  0.12609E+04  0.00000E+00 1
 -0.11000E+05  0.16802E+04  0.00000E+00 1
 -0.10500E+05  0.16804E+04  0.00000E+00 1
 -0.99995E+04  0.16806E+04  0.00000E+00 1
 ZONE I=           3 ,J=           3 , F=POINT
 -0.99987E+04  0.84123E+03  0.00000E+00 1
 -0.94979E+04  0.84255E+03  0.00000E+00 1
 -0.89971E+04  0.84388E+03  0.00000E+00 1
 -0.99991E+04  0.12609E+04  0.00000E+00 1
 -0.94986E+04  0.12618E+04  0.00000E+00 1
 -0.89981E+04  0.12627E+04  0.00000E+00 1
 -0.99995E+04  0.16806E+04  0.00000E+00 1
 -0.94994E+04  0.16810E+04  0.00000E+00 1
 -0.89992E+04  0.16815E+04  0.00000E+00 1
 ZONE I=           3 ,J=           3 , F=POINT
 -0.89971E+04  0.84388E+03  0.00000E+00 1
 -0.84977E+04  0.84550E+03  0.00000E+00 1
 -0.79982E+04  0.84713E+03  0.00000E+00 1
 -0.89981E+04  0.12627E+04  0.00000E+00 1
 -0.84985E+04  0.12637E+04  0.00000E+00 1
 -0.79988E+04  0.12647E+04  0.00000E+00 1
 -0.89992E+04  0.16815E+04  0.00000E+00 1
 -0.84993E+04  0.16819E+04  0.00000E+00 1
 -0.79994E+04  0.16823E+04  0.00000E+00 1
 ZONE I=           3 ,J=           3 , F=POINT
 -0.79982E+04  0.84713E+03  0.00000E+00 1
 -0.74991E+04  0.84749E+03  0.00000E+00 1
 -0.69999E+04  0.84785E+03  0.00000E+00 1
 -0.79988E+04  0.12647E+04  0.00000E+00 1
 -0.74991E+04  0.12651E+04  0.00000E+00 1
 -0.69995E+04  0.12656E+04  0.00000E+00 1
 -0.79994E+04  0.16823E+04  0.00000E+00 1
 -0.74992E+04  0.16828E+04  0.00000E+00 1
 -0.69990E+04  0.16833E+04  0.00000E+00 1
 ZONE I=           3 ,J=           3 , F=POINT
 -0.69999E+04  0.84785E+03  0.00000E+00 1
 -0.64960E+04  0.85007E+03  0.00000E+00 1
 -0.59920E+04  0.85230E+03  0.00000E+00 1
 -0.69995E+04  0.12656E+04  0.00000E+00 1
 -0.64970E+04  0.12673E+04  0.00000E+00 1
 -0.59945E+04  0.12691E+04  0.00000E+00 1
 -0.69990E+04  0.16833E+04  0.00000E+00 1
 -0.64980E+04  0.16845E+04  0.00000E+00 1
 -0.59971E+04  0.16858E+04  0.00000E+00 1
 ZONE I=           3 ,J=           3 , F=POINT
 -0.59920E+04  0.85230E+03  0.00000E+00 1
 -0.54875E+04  0.86117E+03  0.00000E+00 1
 -0.49830E+04  0.87005E+03  0.00000E+00 1
 -0.59945E+04  0.12691E+04  0.00000E+00 1
 -0.54920E+04  0.12747E+04  0.00000E+00 1
 -0.49895E+04  0.12804E+04  0.00000E+00 1
 -0.59971E+04  0.16858E+04  0.00000E+00 1
 -0.54965E+04  0.16883E+04  0.00000E+00 1
 -0.49960E+04  0.16907E+04  0.00000E+00 1
 ZONE I=           3 ,J=           3 , F=POINT
 -0.49830E+04  0.87005E+03  0.00000E+00 1
 -0.44889E+04  0.87851E+03  0.00000E+00 1
 -0.39948E+04  0.88697E+03  0.00000E+00 1
 -0.49895E+04  0.12804E+04  0.00000E+00 1
 -0.44930E+04  0.12856E+04  0.00000E+00 1
 -0.39966E+04  0.12908E+04  0.00000E+00 1
 -0.49960E+04  0.16907E+04  0.00000E+00 1
 -0.44972E+04  0.16927E+04  0.00000E+00 1
 -0.39984E+04  0.16947E+04  0.00000E+00 1
 ZONE I=           3 ,J=           3 , F=POINT
 -0.39948E+04  0.88697E+03  0.00000E+00 1
 -0.35021E+04  0.88436E+03  0.00000E+00 1
 -0.30094E+04  0.88176E+03  0.00000E+00 1
 -0.39966E+04  0.12908E+04  0.00000E+00 1
 -0.35007E+04  0.12897E+04  0.00000E+00 1
 -0.30048E+04  0.12886E+04  0.00000E+00 1
 -0.39984E+04  0.16947E+04  0.00000E+00 1
 -0.34993E+04  0.16950E+04  0.00000E+00 1
 -0.30002E+04  0.16954E+04  0.00000E+00 1
 ZONE I=           3 ,J=           3 , F=POINT
 -0.30094E+04  0.88176E+03  0.00000E+00 1
 -0.25011E+04  0.88028E+03  0.00000E+00 1
 -0.19929E+04  0.87881E+03  0.00000E+00 1
 -0.30048E+04  0.12886E+04  0.00000E+00 1
 -0.25000E+04  0.12883E+04  0.00000E+00 1
 -0.19952E+04  0.12880E+04  0.00000E+00 1
 -0.30002E+04  0.16954E+04  0.00000E+00 1
 -0.24988E+04  0.16963E+04  0.00000E+00 1
 -0.19974E+04  0.16972E+04  0.00000E+00 1
 ZONE I=           3 ,J=           3 , F=POINT
 -0.19929E+04  0.87881E+03  0.00000E+00 1
 -0.14844E+04  0.89309E+03  0.00000E+00 1
 -0.97589E+03  0.90738E+03  0.00000E+00 1
 -0.19952E+04  0.12880E+04  0.00000E+00 1
 -0.14904E+04  0.12968E+04  0.00000E+00 1
 -0.98571E+03  0.13055E+04  0.00000E+00 1
 -0.19974E+04  0.16972E+04  0.00000E+00 1
 -0.14965E+04  0.17004E+04  0.00000E+00 1
 -0.99553E+03  0.17036E+04  0.00000E+00 1
 ZONE I=           3 ,J=           3 , F=POINT
 -0.97589E+03  0.90738E+03  0.00000E+00 1
 -0.48794E+03  0.91845E+03  0.00000E+00 1
  0.20874E-03  0.92951E+03  0.00000E+00 1
 -0.98571E+03  0.13055E+04  0.00000E+00 1
 -0.49286E+03  0.13120E+04  0.00000E+00 1
  0.13147E-03  0.13186E+04  0.00000E+00 1
 -0.99553E+03  0.17036E+04  0.00000E+00 1
 -0.49777E+03  0.17056E+04  0.00000E+00 1
  0.54199E-04  0.17077E+04  0.00000E+00 1
 ZONE I=           3 ,J=           3 , F=POINT
  0.20874E-03  0.92951E+03  0.00000E+00 1
  0.48794E+03  0.91845E+03  0.00000E+00 1
  0.97589E+03  0.90738E+03  0.00000E+00 1
  0.13147E-03  0.13186E+04  0.00000E+00 1
  0.49286E+03  0.13120E+04  0.00000E+00 1
  0.98571E+03  0.13055E+04  0.00000E+00 1
  0.54199E-04  0.17077E+04  0.00000E+00 1
  0.49777E+03  0.17056E+04  0.00000E+00 1
  0.99553E+03  0.17036E+04  0.00000E+00 1
 ZONE I=           3 ,J=           3 , F=POINT
  0.97589E+03  0.90738E+03  0.00000E+00 1
  0.14844E+04  0.89309E+03  0.00000E+00 1
  0.19929E+04  0.87881E+03  0.00000E+00 1
  0.98571E+03  0.13055E+04  0.00000E+00 1
  0.14904E+04  0.12968E+04  0.00000E+00 1
  0.19952E+04  0.12880E+04  0.00000E+00 1
  0.99553E+03  0.17036E+04  0.00000E+00 1
  0.14965E+04  0.17004E+04  0.00000E+00 1
  0.19974E+04  0.16972E+04  0.00000E+00 1
 ZONE I=           3 ,J=           3 , F=POINT
  0.19929E+04  0.87881E+03  0.00000E+00 1
  0.25011E+04  0.88028E+03  0.00000E+00 1
  0.30094E+04  0.88176E+03  0.00000E+00 1
  0.19952E+04  0.12880E+04  0.00000E+00 1
  0.25000E+04  0.12883E+04  0.00000E+00 1
  0.30048E+04  0.12886E+04  0.00000E+00 1
  0.19974E+04  0.16972E+04  0.00000E+00 1
  0.24988E+04  0.16963E+04  0.00000E+00 1
  0.30002E+04  0.16954E+04  0.00000E+00 1
 ZONE I=           3 ,J=           3 , F=POINT
  0.30094E+04  0.88176E+03  0.00000E+00 1
  0.35021E+04  0.88436E+03  0.00000E+00 1
  0.39948E+04  0.88697E+03  0.00000E+00 1
  0.30048E+04  0.12886E+04  0.00000E+00 1
  0.35007E+04  0.12897E+04  0.00000E+00 1
  0.39966E+04  0.12908E+04  0.00000E+00 1
  0.30002E+04  0.16954E+04  0.00000E+00 1
  0.34993E+04  0.16950E+04  0.00000E+00 1
  0.39984E+04  0.16947E+04  0.00000E+00 1
 ZONE I=           3 ,J=           3 , F=POINT
  0.39948E+04  0.88697E+03  0.00000E+00 1
  0.44889E+04  0.87851E+03  0.00000E+00 1
  0.49830E+04  0.87005E+03  0.00000E+00 1
  0.39966E+04  0.12908E+04  0.00000E+00 1
  0.44930E+04  0.12856E+04  0.00000E+00 1
  0.49895E+04  0.12804E+04  0.00000E+00 1
  0.39984E+04  0.16947E+04  0.00000E+00 1
  0.44972E+04  0.16927E+04  0.00000E+00 1
  0.49960E+04  0.16907E+04  0.00000E+00 1
 ZONE I=           3 ,J=           3 , F=POINT
  0.49830E+04  0.87005E+03  0.00000E+00 1
  0.54875E+04  0.86117E+03  0.00000E+00 1
  0.59920E+04  0.85230E+03  0.00000E+00 1
  0.49895E+04  0.12804E+04  0.00000E+00 1
  0.54920E+04  0.12747E+04  0.00000E+00 1
  0.59945E+04  0.12691E+04  0.00000E+00 1
  0.49960E+04  0.16907E+04  0.00000E+00 1
  0.54965E+04  0.16883E+04  0.00000E+00 1
  0.59971E+04  0.16858E+04  0.00000E+00 1
 ZONE I=           3 ,J=           3 , F=POINT
  0.59920E+04  0.85230E+03  0.00000E+00 1
  0.64960E+04  0.85007E+03  0.00000E+00 1
  0.69999E+04  0.84785E+03  0.00000E+00 1
  0.59945E+04  0.12691E+04  0.00000E+00 1
  0.64970E+04  0.12673E+04  0.00000E+00 1
  0.69995E+04  0.12656E+04  0.00000E+00 1
  0.59971E+04  0.16858E+04  0.00000E+00 1
  0.64980E+04  0.16845E+04  0.00000E+00 1
  0.69990E+04  0.16833E+04  0.00000E+00 1
 ZONE I=           3 ,J=           3 , F=POINT
  0.69999E+04  0.84785E+03  0.00000E+00 1
  0.74991E+04  0.84749E+03  0.00000E+00 1
  0.79982E+04  0.84713E+03  0.00000E+00 1
  0.69995E+04  0.12656E+04  0.00000E+00 1
  0.74991E+04  0.12651E+04  0.00000E+00 1
  0.79988E+04  0.12647E+04  0.00000E+00 1
  0.69990E+04  0.16833E+04  0.00000E+00 1
  0.74992E+04  0.16828E+04  0.00000E+00 1
  0.79994E+04  0.16823E+04  0.00000E+00 1
 ZONE I=           3 ,J=           3 , F=POINT
  0.79982E+04  0.84713E+03  0.00000E+00 1
  0.84977E+04  0.84550E+03  0.00000E+00 1
  0.89971E+04  0.84388E+03  0.00000E+00 1
  0.79988E+04  0.12647E+04  0.00000E+00 1
  0.84985E+04  0.12637E+04  0.00000E+00 1
  0.89981E+04  0.12627E+04  0.00000E+00 1
  0.79994E+04  0.16823E+04  0.00000E+00 1
  0.84993E+04  0.16819E+04  0.00000E+00 1
  0.89992E+04  0.16815E+04  0.00000E+00 1
 ZONE I=           3 ,J=           3 , F=POINT
  0.89971E+04  0.84388E+03  0.00000E+00 1
  0.94979E+04  0.84255E+03  0.00000E+00 1
  0.99987E+04  0.84123E+03  0.00000E+00 1
  0.89981E+04  0.12627E+04  0.00000E+00 1
  0.94986E+04  0.12618E+04  0.00000E+00 1
  0.99991E+04  0.12609E+04  0.00000E+00 1
  0.89992E+04  0.16815E+04  0.00000E+00 1
  0.94994E+04  0.16810E+04  0.00000E+00 1
  0.99995E+04  0.16806E+04  0.00000E+00 1
 ZONE I=           3 ,J=           3 , F=POINT
  0.99987E+04  0.84123E+03  0.00000E+00 1
  0.10499E+05  0.84086E+03  0.00000E+00 1
  0.11000E+05  0.84048E+03  0.00000E+00 1
  0.99991E+04  0.12609E+04  0.00000E+00 1
  0.10499E+05  0.12607E+04  0.00000E+00 1
  0.11000E+05  0.12604E+04  0.00000E+00 1
  0.99995E+04  0.16806E+04  0.00000E+00 1
  0.10500E+05  0.16804E+04  0.00000E+00 1
  0.11000E+05  0.16802E+04  0.00000E+00 1
 ZONE I=           3 ,J=           3 , F=POINT
  0.11000E+05  0.84048E+03  0.00000E+00 1
  0.11500E+05  0.84041E+03  0.00000E+00 1
  0.12000E+05  0.84033E+03  0.00000E+00 1
  0.11000E+05  0.12604E+04  0.00000E+00 1
  0.11500E+05  0.12603E+04  0.00000E+00 1
  0.12000E+05  0.12602E+04  0.00000E+00 1
  0.11000E+05  0.16802E+04  0.00000E+00 1
  0.11500E+05  0.16802E+04  0.00000E+00 1
  0.12000E+05  0.16801E+04  0.00000E+00 1
 ZONE I=           3 ,J=           3 , F=POINT
  0.12000E+05  0.84033E+03  0.00000E+00 1
  0.12500E+05  0.84024E+03  0.00000E+00 1
  0.13000E+05  0.84015E+03  0.00000E+00 1
  0.12000E+05  0.12602E+04  0.00000E+00 1
  0.12500E+05  0.12602E+04  0.00000E+00 1
  0.13000E+05  0.12601E+04  0.00000E+00 1
  0.12000E+05  0.16801E+04  0.00000E+00 1
  0.12500E+05  0.16801E+04  0.00000E+00 1
  0.13000E+05  0.16801E+04  0.00000E+00 1
 ZONE I=           3 ,J=           3 , F=POINT
  0.13000E+05  0.84015E+03  0.00000E+00 1
  0.13500E+05  0.84010E+03  0.00000E+00 1
  0.14000E+05  0.84004E+03  0.00000E+00 1
  0.13000E+05  0.12601E+04  0.00000E+00 1
  0.13500E+05  0.12601E+04  0.00000E+00 1
  0.14000E+05  0.12600E+04  0.00000E+00 1
  0.13000E+05  0.16801E+04  0.00000E+00 1
  0.13500E+05  0.16800E+04  0.00000E+00 1
  0.14000E+05  0.16800E+04  0.00000E+00 1
 ZONE I=           3 ,J=           3 , F=POINT
  0.14000E+05  0.84004E+03  0.00000E+00 1
  0.14500E+05  0.84003E+03  0.00000E+00 1
  0.15000E+05  0.84001E+03  0.00000E+00 1
  0.14000E+05  0.12600E+04  0.00000E+00 1
  0.14500E+05  0.12600E+04  0.00000E+00 1
  0.15000E+05  0.12600E+04  0.00000E+00 1
  0.14000E+05  0.16800E+04  0.00000E+00 1
  0.14500E+05  0.16800E+04  0.00000E+00 1
  0.15000E+05  0.16800E+04  0.00000E+00 1
 ZONE I=           3 ,J=           3 , F=POINT
  0.15000E+05  0.84001E+03  0.00000E+00 1
  0.15500E+05  0.84001E+03  0.00000E+00 1
  0.16000E+05  0.84000E+03  0.00000E+00 1
  0.15000E+05  0.12600E+04  0.00000E+00 1
  0.15500E+05  0.12600E+04  0.00000E+00 1
  0.16000E+05  0.12600E+04  0.00000E+00 1
  0.15000E+05  0.16800E+04  0.00000E+00 1
  0.15500E+05  0.16800E+04  0.00000E+00 1
  0.16000E+05  0.16800E+04  0.00000E+00 1
 ZONE I=           3 ,J=           3 , F=POINT
  0.16000E+05  0.84000E+03  0.00000E+00 1
  0.16500E+05  0.84000E+03  0.00000E+00 1
  0.17000E+05  0.84000E+03  0.00000E+00 1
  0.16000E+05  0.12600E+04  0.00000E+00 1
  0.16500E+05  0.12600E+04  0.00000E+00 1
  0.17000E+05  0.12600E+04  0.00000E+00 1
  0.16000E+05  0.16800E+04  0.00000E+00 1
  0.16500E+05  0.16800E+04  0.00000E+00 1
  0.17000E+05  0.16800E+04  0.00000E+00 1
 ZONE I=           3 ,J=           3 , F=POINT
  0.17000E+05  0.84000E+03  0.00000E+00 1
  0.17500E+05  0.84000E+03  0.00000E+00 1
  0.18000E+05  0.84000E+03  0.00000E+00 1
  0.17000E+05  0.12600E+04  0.00000E+00 1
  0.17500E+05  0.12600E+04  0.00000E+00 1
  0.18000E+05  0.12600E+04  0.00000E+00 1
  0.17000E+05  0.16800E+04  0.00000E+00 1
  0.17500E+05  0.16800E+04  0.00000E+00 1
  0.18000E+05  0.16800E+04  0.00000E+00 1
 ZONE I=           3 ,J=           3 , F=POINT
  0.18000E+05  0.84000E+03  0.00000E+00 1
  0.18500E+05  0.84001E+03  0.00000E+00 1
  0.19000E+05  0.84002E+03  0.00000E+00 1
  0.18000E+05  0.12600E+04  0.00000E+00 1
  0.18500E+05  0.12600E+04  0.00000E+00 1
  0.19000E+05  0.12600E+04  0.00000E+00 1
  0.18000E+05  0.16800E+04  0.00000E+00 1
  0.18500E+05  0.16800E+04  0.00000E+00 1
  0.19000E+05  0.16800E+04  0.00000E+00 1
 ZONE I=           3 ,J=           3 , F=POINT
  0.19000E+05  0.84002E+03  0.00000E+00 1
  0.19500E+05  0.84012E+03  0.00000E+00 1
  0.20000E+05  0.84021E+03  0.00000E+00 1
  0.19000E+05  0.12600E+04  0.00000E+00 1
  0.19500E+05  0.12601E+04  0.00000E+00 1
  0.20000E+05  0.12602E+04  0.00000E+00 1
  0.19000E+05  0.16800E+04  0.00000E+00 1
  0.19500E+05  0.16801E+04  0.00000E+00 1
  0.20000E+05  0.16803E+04  0.00000E+00 1
 ZONE I=           3 ,J=           3 , F=POINT
  0.20000E+05  0.84021E+03  0.00000E+00 1
  0.20499E+05  0.84068E+03  0.00000E+00 1
  0.20998E+05  0.84115E+03  0.00000E+00 1
  0.20000E+05  0.12602E+04  0.00000E+00 1
  0.20499E+05  0.12607E+04  0.00000E+00 1
  0.20998E+05  0.12613E+04  0.00000E+00 1
  0.20000E+05  0.16803E+04  0.00000E+00 1
  0.20499E+05  0.16808E+04  0.00000E+00 1
  0.20998E+05  0.16814E+04  0.00000E+00 1
 ZONE I=           3 ,J=           3 , F=POINT
  0.20998E+05  0.84115E+03  0.00000E+00 1
  0.21496E+05  0.84254E+03  0.00000E+00 1
  0.21993E+05  0.84393E+03  0.00000E+00 1
  0.20998E+05  0.12613E+04  0.00000E+00 1
  0.21496E+05  0.12627E+04  0.00000E+00 1
  0.21994E+05  0.12642E+04  0.00000E+00 1
  0.20998E+05  0.16814E+04  0.00000E+00 1
  0.21496E+05  0.16829E+04  0.00000E+00 1
  0.21994E+05  0.16845E+04  0.00000E+00 1
 ZONE I=           3 ,J=           3 , F=POINT
  0.21993E+05  0.84393E+03  0.00000E+00 1
  0.22490E+05  0.84596E+03  0.00000E+00 1
  0.22987E+05  0.84798E+03  0.00000E+00 1
  0.21994E+05  0.12642E+04  0.00000E+00 1
  0.22491E+05  0.12663E+04  0.00000E+00 1
  0.22988E+05  0.12684E+04  0.00000E+00 1
  0.21994E+05  0.16845E+04  0.00000E+00 1
  0.22492E+05  0.16867E+04  0.00000E+00 1
  0.22989E+05  0.16889E+04  0.00000E+00 1
 ZONE I=           3 ,J=           3 , F=POINT
  0.22987E+05  0.84798E+03  0.00000E+00 1
  0.23488E+05  0.84875E+03  0.00000E+00 1
  0.23989E+05  0.84952E+03  0.00000E+00 1
  0.22988E+05  0.12684E+04  0.00000E+00 1
  0.23489E+05  0.12693E+04  0.00000E+00 1
  0.23990E+05  0.12701E+04  0.00000E+00 1
  0.22989E+05  0.16889E+04  0.00000E+00 1
  0.23490E+05  0.16898E+04  0.00000E+00 1
  0.23990E+05  0.16907E+04  0.00000E+00 1
 ZONE I=           3 ,J=           3 , F=POINT
 -0.23990E+05  0.16907E+04  0.00000E+00 1
 -0.23490E+05  0.16898E+04  0.00000E+00 1
 -0.22989E+05  0.16889E+04  0.00000E+00 1
 -0.23993E+05  0.21081E+04  0.00000E+00 1
 -0.23492E+05  0.21075E+04  0.00000E+00 1
 -0.22992E+05  0.21069E+04  0.00000E+00 1
 -0.23995E+05  0.25255E+04  0.00000E+00 1
 -0.23495E+05  0.25252E+04  0.00000E+00 1
 -0.22995E+05  0.25249E+04  0.00000E+00 1
 ZONE I=           3 ,J=           3 , F=POINT
 -0.22989E+05  0.16889E+04  0.00000E+00 1
 -0.22492E+05  0.16867E+04  0.00000E+00 1
 -0.21994E+05  0.16845E+04  0.00000E+00 1
 -0.22992E+05  0.21069E+04  0.00000E+00 1
 -0.22494E+05  0.21052E+04  0.00000E+00 1
 -0.21996E+05  0.21035E+04  0.00000E+00 1
 -0.22995E+05  0.25249E+04  0.00000E+00 1
 -0.22496E+05  0.25238E+04  0.00000E+00 1
 -0.21997E+05  0.25226E+04  0.00000E+00 1
 ZONE I=           3 ,J=           3 , F=POINT
 -0.21994E+05  0.16845E+04  0.00000E+00 1
 -0.21496E+05  0.16829E+04  0.00000E+00 1
 -0.20998E+05  0.16814E+04  0.00000E+00 1
 -0.21996E+05  0.21035E+04  0.00000E+00 1
 -0.21497E+05  0.21023E+04  0.00000E+00 1
 -0.20999E+05  0.21011E+04  0.00000E+00 1
 -0.21997E+05  0.25226E+04  0.00000E+00 1
 -0.21498E+05  0.25217E+04  0.00000E+00 1
 -0.20999E+05  0.25208E+04  0.00000E+00 1
 ZONE I=           3 ,J=           3 , F=POINT
 -0.20998E+05  0.16814E+04  0.00000E+00 1
 -0.20499E+05  0.16808E+04  0.00000E+00 1
 -0.20000E+05  0.16803E+04  0.00000E+00 1
 -0.20999E+05  0.21011E+04  0.00000E+00 1
 -0.20499E+05  0.21007E+04  0.00000E+00 1
 -0.20000E+05  0.21002E+04  0.00000E+00 1
 -0.20999E+05  0.25208E+04  0.00000E+00 1
 -0.20499E+05  0.25205E+04  0.00000E+00 1
 -0.20000E+05  0.25202E+04  0.00000E+00 1
 ZONE I=           3 ,J=           3 , F=POINT
 -0.20000E+05  0.16803E+04  0.00000E+00 1
 -0.19500E+05  0.16801E+04  0.00000E+00 1
 -0.19000E+05  0.16800E+04  0.00000E+00 1
 -0.20000E+05  0.21002E+04  0.00000E+00 1
 -0.19500E+05  0.21001E+04  0.00000E+00 1
 -0.19000E+05  0.21000E+04  0.00000E+00 1
 -0.20000E+05  0.25202E+04  0.00000E+00 1
 -0.19500E+05  0.25201E+04  0.00000E+00 1
 -0.19000E+05  0.25200E+04  0.00000E+00 1
 ZONE I=           3 ,J=           3 , F=POINT
 -0.19000E+05  0.16800E+04  0.00000E+00 1
 -0.18500E+05  0.16800E+04  0.00000E+00 1
 -0.18000E+05  0.16800E+04  0.00000E+00 1
 -0.19000E+05  0.21000E+04  0.00000E+00 1
 -0.18500E+05  0.21000E+04  0.00000E+00 1
 -0.18000E+05  0.21000E+04  0.00000E+00 1
 -0.19000E+05  0.25200E+04  0.00000E+00 1
 -0.18500E+05  0.25200E+04  0.00000E+00 1
 -0.18000E+05  0.25200E+04  0.00000E+00 1
 ZONE I=           3 ,J=           3 , F=POINT
 -0.18000E+05  0.16800E+04  0.00000E+00 1
 -0.17500E+05  0.16800E+04  0.00000E+00 1
 -0.17000E+05  0.16800E+04  0.00000E+00 1
 -0.18000E+05  0.21000E+04  0.00000E+00 1
 -0.17500E+05  0.21000E+04  0.00000E+00 1
 -0.17000E+05  0.21000E+04  0.00000E+00 1
 -0.18000E+05  0.25200E+04  0.00000E+00 1
 -0.17500E+05  0.25200E+04  0.00000E+00 1
 -0.17000E+05  0.25200E+04  0.00000E+00 1
 ZONE I=           3 ,J=           3 , F=POINT
 -0.17000E+05  0.16800E+04  0.00000E+00 1
 -0.16500E+05  0.16800E+04  0.00000E+00 1
 -0.16000E+05  0.16800E+04  0.00000E+00 1
 -0.17000E+05  0.21000E+04  0.00000E+00 1
 -0.16500E+05  0.21000E+04  0.00000E+00 1
 -0.16000E+05  0.21000E+04  0.00000E+00 1
 -0.17000E+05  0.25200E+04  0.00000E+00 1
 -0.16500E+05  0.25200E+04  0.00000E+00 1
 -0.16000E+05  0.25200E+04  0.00000E+00 1
 ZONE I=           3 ,J=           3 , F=POINT
 -0.16000E+05  0.16800E+04  0.00000E+00 1
 -0.15500E+05  0.16800E+04  0.00000E+00 1
 -0.15000E+05  0.16800E+04  0.00000E+00 1
 -0.16000E+05  0.21000E+04  0.00000E+00 1
 -0.15500E+05  0.21000E+04  0.00000E+00 1
 -0.15000E+05  0.21000E+04  0.00000E+00 1
 -0.16000E+05  0.25200E+04  0.00000E+00 1
 -0.15500E+05  0.25200E+04  0.00000E+00 1
 -0.15000E+05  0.25200E+04  0.00000E+00 1
 ZONE I=           3 ,J=           3 , F=POINT
 -0.15000E+05  0.16800E+04  0.00000E+00 1
 -0.14500E+05  0.16800E+04  0.00000E+00 1
 -0.14000E+05  0.16800E+04  0.00000E+00 1
 -0.15000E+05  0.21000E+04  0.00000E+00 1
 -0.14500E+05  0.21000E+04  0.00000E+00 1
 -0.14000E+05  0.21000E+04  0.00000E+00 1
 -0.15000E+05  0.25200E+04  0.00000E+00 1
 -0.14500E+05  0.25200E+04  0.00000E+00 1
 -0.14000E+05  0.25200E+04  0.00000E+00 1
 ZONE I=           3 ,J=           3 , F=POINT
 -0.14000E+05  0.16800E+04  0.00000E+00 1
 -0.13500E+05  0.16800E+04  0.00000E+00 1
 -0.13000E+05  0.16801E+04  0.00000E+00 1
 -0.14000E+05  0.21000E+04  0.00000E+00 1
 -0.13500E+05  0.21000E+04  0.00000E+00 1
 -0.13000E+05  0.21000E+04  0.00000E+00 1
 -0.14000E+05  0.25200E+04  0.00000E+00 1
 -0.13500E+05  0.25200E+04  0.00000E+00 1
 -0.13000E+05  0.25200E+04  0.00000E+00 1
 ZONE I=           3 ,J=           3 , F=POINT
 -0.13000E+05  0.16801E+04  0.00000E+00 1
 -0.12500E+05  0.16801E+04  0.00000E+00 1
 -0.12000E+05  0.16801E+04  0.00000E+00 1
 -0.13000E+05  0.21000E+04  0.00000E+00 1
 -0.12500E+05  0.21001E+04  0.00000E+00 1
 -0.12000E+05  0.21001E+04  0.00000E+00 1
 -0.13000E+05  0.25200E+04  0.00000E+00 1
 -0.12500E+05  0.25200E+04  0.00000E+00 1
 -0.12000E+05  0.25200E+04  0.00000E+00 1
 ZONE I=           3 ,J=           3 , F=POINT
 -0.12000E+05  0.16801E+04  0.00000E+00 1
 -0.11500E+05  0.16802E+04  0.00000E+00 1
 -0.11000E+05  0.16802E+04  0.00000E+00 1
 -0.12000E+05  0.21001E+04  0.00000E+00 1
 -0.11500E+05  0.21001E+04  0.00000E+00 1
 -0.11000E+05  0.21002E+04  0.00000E+00 1
 -0.12000E+05  0.25200E+04  0.00000E+00 1
 -0.11500E+05  0.25201E+04  0.00000E+00 1
 -0.11000E+05  0.25201E+04  0.00000E+00 1
 ZONE I=           3 ,J=           3 , F=POINT
 -0.11000E+05  0.16802E+04  0.00000E+00 1
 -0.10500E+05  0.16804E+04  0.00000E+00 1
 -0.99995E+04  0.16806E+04  0.00000E+00 1
 -0.11000E+05  0.21002E+04  0.00000E+00 1
 -0.10500E+05  0.21003E+04  0.00000E+00 1
 -0.99997E+04  0.21004E+04  0.00000E+00 1
 -0.11000E+05  0.25201E+04  0.00000E+00 1
 -0.10500E+05  0.25201E+04  0.00000E+00 1
 -0.99999E+04  0.25202E+04  0.00000E+00 1
 ZONE I=           3 ,J=           3 , F=POINT
 -0.99995E+04  0.16806E+04  0.00000E+00 1
 -0.94994E+04  0.16810E+04  0.00000E+00 1
 -0.89992E+04  0.16815E+04  0.00000E+00 1
 -0.99997E+04  0.21004E+04  0.00000E+00 1
 -0.94996E+04  0.21007E+04  0.00000E+00 1
 -0.89995E+04  0.21009E+04  0.00000E+00 1
 -0.99999E+04  0.25202E+04  0.00000E+00 1
 -0.94999E+04  0.25203E+04  0.00000E+00 1
 -0.89998E+04  0.25204E+04  0.00000E+00 1
 ZONE I=           3 ,J=           3 , F=POINT
 -0.89992E+04  0.16815E+04  0.00000E+00 1
 -0.84993E+04  0.16819E+04  0.00000E+00 1
 -0.79994E+04  0.16823E+04  0.00000E+00 1
 -0.89995E+04  0.21009E+04  0.00000E+00 1
 -0.84996E+04  0.21012E+04  0.00000E+00 1
 -0.79996E+04  0.21015E+04  0.00000E+00 1
 -0.89998E+04  0.25204E+04  0.00000E+00 1
 -0.84998E+04  0.25205E+04  0.00000E+00 1
 -0.79998E+04  0.25206E+04  0.00000E+00 1
 ZONE I=           3 ,J=           3 , F=POINT
 -0.79994E+04  0.16823E+04  0.00000E+00 1
 -0.74992E+04  0.16828E+04  0.00000E+00 1
 -0.69990E+04  0.16833E+04  0.00000E+00 1
 -0.79996E+04  0.21015E+04  0.00000E+00 1
 -0.74995E+04  0.21018E+04  0.00000E+00 1
 -0.69993E+04  0.21021E+04  0.00000E+00 1
 -0.79998E+04  0.25206E+04  0.00000E+00 1
 -0.74997E+04  0.25207E+04  0.00000E+00 1
 -0.69997E+04  0.25209E+04  0.00000E+00 1
 ZONE I=           3 ,J=           3 , F=POINT
 -0.69990E+04  0.16833E+04  0.00000E+00 1
 -0.64980E+04  0.16845E+04  0.00000E+00 1
 -0.59971E+04  0.16858E+04  0.00000E+00 1
 -0.69993E+04  0.21021E+04  0.00000E+00 1
 -0.64988E+04  0.21029E+04  0.00000E+00 1
 -0.59982E+04  0.21037E+04  0.00000E+00 1
 -0.69997E+04  0.25209E+04  0.00000E+00 1
 -0.64995E+04  0.25212E+04  0.00000E+00 1
 -0.59993E+04  0.25216E+04  0.00000E+00 1
 ZONE I=           3 ,J=           3 , F=POINT
 -0.59971E+04  0.16858E+04  0.00000E+00 1
 -0.54965E+04  0.16883E+04  0.00000E+00 1
 -0.49960E+04  0.16907E+04  0.00000E+00 1
 -0.59982E+04  0.21037E+04  0.00000E+00 1
 -0.54979E+04  0.21052E+04  0.00000E+00 1
 -0.49976E+04  0.21066E+04  0.00000E+00 1
 -0.59993E+04  0.25216E+04  0.00000E+00 1
 -0.54993E+04  0.25221E+04  0.00000E+00 1
 -0.49992E+04  0.25226E+04  0.00000E+00 1
 ZONE I=           3 ,J=           3 , F=POINT
 -0.49960E+04  0.16907E+04  0.00000E+00 1
 -0.44972E+04  0.16927E+04  0.00000E+00 1
 -0.39984E+04  0.16947E+04  0.00000E+00 1
 -0.49976E+04  0.21066E+04  0.00000E+00 1
 -0.44983E+04  0.21078E+04  0.00000E+00 1
 -0.39990E+04  0.21090E+04  0.00000E+00 1
 -0.49992E+04  0.25226E+04  0.00000E+00 1
 -0.44994E+04  0.25230E+04  0.00000E+00 1
 -0.39996E+04  0.25234E+04  0.00000E+00 1
 ZONE I=           3 ,J=           3 , F=POINT
 -0.39984E+04  0.16947E+04  0.00000E+00 1
 -0.34993E+04  0.16950E+04  0.00000E+00 1
 -0.30002E+04  0.16954E+04  0.00000E+00 1
 -0.39990E+04  0.21090E+04  0.00000E+00 1
 -0.34995E+04  0.21093E+04  0.00000E+00 1
 -0.30000E+04  0.21096E+04  0.00000E+00 1
 -0.39996E+04  0.25234E+04  0.00000E+00 1
 -0.34997E+04  0.25236E+04  0.00000E+00 1
 -0.29998E+04  0.25238E+04  0.00000E+00 1
 ZONE I=           3 ,J=           3 , F=POINT
 -0.30002E+04  0.16954E+04  0.00000E+00 1
 -0.24988E+04  0.16963E+04  0.00000E+00 1
 -0.19974E+04  0.16972E+04  0.00000E+00 1
 -0.30000E+04  0.21096E+04  0.00000E+00 1
 -0.24992E+04  0.21102E+04  0.00000E+00 1
 -0.19984E+04  0.21109E+04  0.00000E+00 1
 -0.29998E+04  0.25238E+04  0.00000E+00 1
 -0.24996E+04  0.25242E+04  0.00000E+00 1
 -0.19994E+04  0.25245E+04  0.00000E+00 1
 ZONE I=           3 ,J=           3 , F=POINT
 -0.19974E+04  0.16972E+04  0.00000E+00 1
 -0.14965E+04  0.17004E+04  0.00000E+00 1
 -0.99553E+03  0.17036E+04  0.00000E+00 1