 VARIABLES = "X", "Y", "Z"
 ZONE F=FEPOINT, ET=QUADRILATERAL, N=         189 E=         160
  -17977.239801122505        2023.7879529155512        0.0000000000000000     
  -15974.226277562442        2020.3248440833697        0.0000000000000000     
  -13986.515043182169        2010.9350243692222        0.0000000000000000     
  -11996.036176615396        2004.7602083619358        0.0000000000000000     
  -9998.2948898276700        2003.3236566547446        0.0000000000000000     
  -7997.2796856041678        2004.6869317064443        0.0000000000000000     
  -5992.3810538473335        2009.8091762392773        0.0000000000000000     
  -3977.1715199137839        2026.8537515937335        0.0000000000000000     
  -1970.0699333068860        2073.8892389155208        0.0000000000000000     
  -4.4283237201414588E-006   2107.7767040316676        0.0000000000000000     
   1970.0699007564178        2073.8892390285860        0.0000000000000000     
   3977.1713303743081        2026.8537522623235        0.0000000000000000     
   5992.3807347332704        2009.8091773763999        0.0000000000000000     
   7997.2795262687641        2004.6869323584538        0.0000000000000000     
   9998.2950362266456        2003.3236566428682        0.0000000000000000     
   11996.036476654126        2004.7602077961074        0.0000000000000000     
   13986.515221725365        2010.9350215688130        0.0000000000000000     
   15974.226308339403        2020.3248343898777        0.0000000000000000     
   17977.239805821773        2023.7879401486155        0.0000000000000000     
  -17980.893981632482        4026.5465625422316        0.0000000000000000     
  -15978.676829592290        4022.2060676147930        0.0000000000000000     
  -13988.089506392456        4011.8299538009019        0.0000000000000000     
  -11996.000595973102        4004.6319296354718        0.0000000000000000     
  -9998.7601375068025        4002.3780959939672        0.0000000000000000     
  -7998.5363618055571        4002.7739815785549        0.0000000000000000     
  -5996.2013037756860        4005.5827620495843        0.0000000000000000     
  -3992.7376330408670        4013.4206174512228        0.0000000000000000     
  -1993.0503735937764        4025.7553189641062        0.0000000000000000     
  -4.7697444300782996E-006   4032.4365582426713        0.0000000000000000     
   1993.0503480335115        4025.7553190504836        0.0000000000000000     
   3992.7375682323950        4013.4206176810080        0.0000000000000000     
   5996.2012192531256        4005.5827623609812        0.0000000000000000     
   7998.5363200737002        4002.7739817930978        0.0000000000000000     
   9998.7601739181919        4002.3780959777846        0.0000000000000000     
   11996.000675001433        4004.6319288259492        0.0000000000000000     
   13988.089567369512        4011.8299484093723        0.0000000000000000     
   15978.676853256406        4022.2060429291505        0.0000000000000000     
   17980.893986215400        4026.5464875694661        0.0000000000000000     
  -17990.143309748757        6013.5577865405830        0.0000000000000000     
  -15988.700388503006        6012.0364772056355        0.0000000000000000     
  -13993.367650448672        6006.7867040998835        0.0000000000000000     
  -11997.630399360029        6002.9442613359006        0.0000000000000000     
  -9999.3403016216544        6001.5832351804684        0.0000000000000000     
  -7999.5005235307908        6001.5695774769338        0.0000000000000000     
  -5998.9945128831323        6002.4170530225565        0.0000000000000000     
  -3998.4367971929119        6004.3223157373168        0.0000000000000000     
  -1998.6895474032731        6006.7489923639723        0.0000000000000000     
  -2.1706961749219658E-006   6007.9268785503400        0.0000000000000000     
   1998.6895396699847        6006.7489923887688        0.0000000000000000     
   3998.4367823923726        6004.3223157902166        0.0000000000000000     
   5998.9944957113121        6002.4170530885249        0.0000000000000000     
   7999.5005150128563        6001.5695775216445        0.0000000000000000     
   9999.3403078878000        6001.5832351191575        0.0000000000000000     
   11997.630414626228        6002.9442605178110        0.0000000000000000     
   13993.367663909039        6006.7866984869888        0.0000000000000000     
   15988.700395150190        6012.0364493476063        0.0000000000000000     
   17990.143311576405        6013.5576669187531        0.0000000000000000     
  -17994.526448430348        8000.9947792168477        0.0000000000000000     
  -15993.495517716963        8000.9955886620264        0.0000000000000000     
  -13995.959575000541        8001.0004196335640        0.0000000000000000     
  -11998.467149609638        8001.0098894567855        0.0000000000000000     
  -9999.6081840229162        8001.0320626998964        0.0000000000000000     
  -7999.8648770144382        8001.0952675422768        0.0000000000000000     
  -5999.8313992827270        8001.2564867279189        0.0000000000000000     
  -3999.7737805204629        8001.5508775858989        0.0000000000000000     
  -1999.8246097059109        8001.8829949001993        0.0000000000000000     
  -1.2285401943040731E-006   8002.0347110472303        0.0000000000000000     
   1999.8246076569656        8001.8829949043820        0.0000000000000000     
   3999.7737786823286        8001.5508775939970        0.0000000000000000     
   5999.8313961926742        8001.2564867374349        0.0000000000000000     
   7999.8648721599920        8001.0952675452390        0.0000000000000000     
   9999.6081790315257        8001.0320626375742        0.0000000000000000     
   11998.467146281700        8001.0098888707917        0.0000000000000000     
   13995.959573174225        8001.0004163778813        0.0000000000000000     
   15993.495516224082        8000.9955780239052        0.0000000000000000     
   17994.526447241842        8000.9947656626800        0.0000000000000000     
  -17990.152300463953        9988.4164219382183        0.0000000000000000     
  -15988.719594208567        9989.9443007210739        0.0000000000000000     
  -13993.401871495535        9995.2235812848521        0.0000000000000000     
  -11997.696021536429        9999.1176848920495        0.0000000000000000     
  -9999.4948943207892        10000.590703460031        0.0000000000000000     
  -7999.9211949609016        10000.919389879384        0.0000000000000000     
  -5999.9767451803345        10000.980209787444        0.0000000000000000     
  -3999.9781340292111        10001.013060700830        0.0000000000000000     
  -1999.9841882161586        10001.043615429940        0.0000000000000000     
  -6.5880376151038209E-006   10001.056926569123        0.0000000000000000     
   1999.9841831876183        10001.043615430381        0.0000000000000000     
   3999.9781403518987        10001.013060701634        0.0000000000000000     
   5999.9767443830060        10000.980209788200        0.0000000000000000     
   7999.9211700363448        10000.919389875877        0.0000000000000000     
   9999.4948534265222        10000.590703401114        0.0000000000000000     
   11997.695986270130        9999.1176843878056        0.0000000000000000     
   13993.401849286180        9995.2235788384569        0.0000000000000000     
   15988.719578039725        9989.9442966627266        0.0000000000000000     
   17990.152289033340        9988.4164601672746        0.0000000000000000     
  -17980.930597436651        11975.328584795661        0.0000000000000000     
  -15978.753288102365        11979.726364085805        0.0000000000000000     
  -13988.220873545681        11990.212706284510        0.0000000000000000     
  -11996.237942470776        11997.591598150448        0.0000000000000000     
  -9999.2741597905424        12000.205132470932        0.0000000000000000     
  -7999.9089989412314        12000.742235579308        0.0000000000000000     
  -5999.9914001401376        12000.811678864884        0.0000000000000000     
  -3999.9982001151438        12000.819109416649        0.0000000000000000     
  -1999.9990521021145        12000.821227778471        0.0000000000000000     
  -3.9062469701694321E-005   12000.822011657601        0.0000000000000000     
   1999.9990249947243        12000.821227778501        0.0000000000000000     
   3999.9982531266378        12000.819109416700        0.0000000000000000     
   5999.9914245770278        12000.811678864773        0.0000000000000000     
   7999.9088849498858        12000.742235575213        0.0000000000000000     
   9999.2739602236979        12000.205132406481        0.0000000000000000     
   11996.237791892530        11997.591597492225        0.0000000000000000     
   13988.220798914699        11990.212701805789        0.0000000000000000     
   15978.753222973664        11979.726342792203        0.0000000000000000     
   17980.930536696957        11975.328499516951        0.0000000000000000     
  -17977.340511207793        13977.834647085883        0.0000000000000000     
  -15974.430040713085        13981.480887064525        0.0000000000000000     
  -13986.848262632688        13991.145665279424        0.0000000000000000     
  -11996.601407059114        13997.758571086113        0.0000000000000000     
  -9999.3989873395694        13999.995396703645        0.0000000000000000     
  -7999.9298233373929        14000.434239525284        0.0000000000000000     
  -5999.9941832919485        14000.487939458915        0.0000000000000000     
  -3999.9993569564622        14000.492258407943        0.0000000000000000     
  -2000.0000676288591        14000.492550196452        0.0000000000000000     
  -1.6584720910751798E-004   14000.492587017334        0.0000000000000000     
   1999.9999229967691        14000.492550196455        0.0000000000000000     
   3999.9996492799974        14000.492258407943        0.0000000000000000     
   5999.9944206356113        14000.487939458806        0.0000000000000000     
   7999.9294217903680        14000.434239522403        0.0000000000000000     
   9999.3982436529423        13999.995396654236        0.0000000000000000     
   11996.600969532454        13997.758570515689        0.0000000000000000     
   13986.848197025261        13991.145660748905        0.0000000000000000     
   15974.429847518251        13981.480861128233        0.0000000000000000     
   17977.340244260871        13977.834532584329        0.0000000000000000     
  -20000.000000000000        4032.2473054571774        0.0000000000000000     
  -20000.000000000000        2016.6224058457967        0.0000000000000000     
  -20000.000000000000       0.99750623441396513        0.0000000000000000     
  -17984.177010695988        1.2329292364787330        0.0000000000000000     
  -15968.354021391975        1.5625712303435850        0.0000000000000000     
  -13999.423681370106        2.0306231844301719        0.0000000000000000     
  -11999.087436974343        2.7590374123796373        0.0000000000000000     
  -9998.4331514731803        3.9616251049836113        0.0000000000000000     
  -7996.9754336662827        6.1584302916542972        0.0000000000000000     
  -5992.9985135929292        10.835400967321664        0.0000000000000000     
  -3977.7674149945196        23.777489858349018        0.0000000000000000     
  -1856.4420932580433        89.960877789666014        0.0000000000000000     
   2.8973809094168246E-006   400.00000000000000        0.0000000000000000     
   1856.4420932580651        89.960877789664366        0.0000000000000000     
   3977.7674149945415        23.777489858348776        0.0000000000000000     
   5992.9969715389852        10.835406392373306        0.0000000000000000     
   7996.9754336662991        6.1584302916542724        0.0000000000000000     
   9998.4331514731784        3.9616251049836126        0.0000000000000000     
   11999.088889530562        2.7590367489936822        0.0000000000000000     
   13999.423681370106        2.0306231844301719        0.0000000000000000     
   15968.354021391977        1.5625712303435846        0.0000000000000000     
   17984.177010695988        1.2329292364787330        0.0000000000000000     
   20000.000000000000       0.99750623441396513        0.0000000000000000     
   20000.000000000000        2016.6224058457985        0.0000000000000000     
   20000.000000000000        4032.2473054571828        0.0000000000000000     
   20000.000000000000        6000.9975079938840        0.0000000000000000     
   20000.000000000000        8000.9975823233654        0.0000000000000000     
   20000.000000000000        10000.997841915007        0.0000000000000000     
   20000.000000000000        11969.746860484667        0.0000000000000000     
   20000.000000000000        13984.873430242335        0.0000000000000000     
   20000.000000000000        16000.000000000000        0.0000000000000000     
   17984.374669665343        16000.000000000000        0.0000000000000000     
   15968.749339330690        16000.000000000000        0.0000000000000000     
   14000.000211513679        16000.000000000000        0.0000000000000000     
   11999.999818288688        16000.000000000000        0.0000000000000000     
   9999.9998480910072        16000.000000000000        0.0000000000000000     
   7999.9998778933295        16000.000000000000        0.0000000000000000     
   5999.9999076956501        16000.000000000000        0.0000000000000000     
   4000.0000625020675        16000.000000000000        0.0000000000000000     
   1999.9999673003003        16000.000000000000        0.0000000000000000     
  -2.8973809094168246E-006   16000.000000000000        0.0000000000000000     
  -2000.0016342539602        16000.000000000000        0.0000000000000000     
  -3999.9983657460434        16000.000000000000        0.0000000000000000     
  -5999.9983657460471        16000.000000000000        0.0000000000000000     
  -8000.0016342539566        16000.000000000000        0.0000000000000000     
  -10000.001634253960        16000.000000000000        0.0000000000000000     
  -12000.001634253960        16000.000000000000        0.0000000000000000     
  -13999.998365746047        16000.000000000000        0.0000000000000000     
  -15968.750732734319        16000.000000000000        0.0000000000000000     
  -17984.375366367160        16000.000000000000        0.0000000000000000     
  -20000.000000000000        16000.000000000000        0.0000000000000000     
  -20000.000000000000        13984.873726920099        0.0000000000000000     
  -20000.000000000000        11969.747453840200        0.0000000000000000     
  -20000.000000000000        10000.997219222823        0.0000000000000000     
  -20000.000000000000        8000.9975823233654        0.0000000000000000     
  -20000.000000000000        6000.9981307009448        0.0000000000000000     
           1           2          21          20
           2           3          22          21
           3           4          23          22
           4           5          24          23
           5           6          25          24
           6           7          26          25
           7           8          27          26
           8           9          28          27
           9          10          29          28
          10          11          30          29
          11          12          31          30
          12          13          32          31
          13          14          33          32
          14          15          34          33
          15          16          35          34
          16          17          36          35
          17          18          37          36
          18          19          38          37
          20          21          40          39
          21          22          41          40
          22          23          42          41
          23          24          43          42
          24          25          44          43
          25          26          45          44
          26          27          46          45
          27          28          47          46
          28          29          48          47
          29          30          49          48
          30          31          50          49
          31          32          51          50
          32          33          52          51
          33          34          53          52
          34          35          54          53
          35          36          55          54
          36          37          56          55
          37          38          57          56
          39          40          59          58
          40          41          60          59
          41          42          61          60
          42          43          62          61
          43          44          63          62
          44          45          64          63
          45          46          65          64
          46          47          66          65
          47          48          67          66
          48          49          68          67
          49          50          69          68
          50          51          70          69
          51          52          71          70
          52          53          72          71
          53          54          73          72
          54          55          74          73
          55          56          75          74
          56          57          76          75
          58          59          78          77
          59          60          79          78
          60          61          80          79
          61          62          81          80
          62          63          82          81
          63          64          83          82
          64          65          84          83
          65          66          85          84
          66          67          86          85
          67          68          87          86
          68          69          88          87
          69          70          89          88
          70          71          90          89
          71          72          91          90
          72          73          92          91
          73          74          93          92
          74          75          94          93
          75          76          95          94
          77          78          97          96
          78          79          98          97
          79          80          99          98
          80          81         100          99
          81          82         101         100
          82          83         102         101
          83          84         103         102
          84          85         104         103
          85          86         105         104
          86          87         106         105
          87          88         107         106
          88          89         108         107
          89          90         109         108
          90          91         110         109
          91          92         111         110
          92          93         112         111
          93          94         113         112
          94          95         114         113
          96          97         116         115
          97          98         117         116
          98          99         118         117
          99         100         119         118
         100         101         120         119
         101         102         121         120
         102         103         122         121
         103         104         123         122
         104         105         124         123
         105         106         125         124
         106         107         126         125
         107         108         127         126
         108         109         128         127
         109         110         129         128
         110         111         130         129
         111         112         131         130
         112         113         132         131
         113         114         133         132
          20         134         135           1
           1         135         136         137
           1         137         138           2
           2         138         139           3
           3         139         140           4
           4         140         141           5
           5         141         142           6
           6         142         143           7
           7         143         144           8
           8         144         145           9
           9         145         146          10
          10         146         147          11
          11         147         148          12
          12         148         149          13
          13         149         150          14
          14         150         151          15
          15         151         152          16
          16         152         153          17
          17         153         154          18
          18         154         155          19
          19         155         156         157
          19         157         158          38
          38         158         159          57
          57         159         160          76
          76         160         161          95
          95         161         162         114
         114         162         163         133
         133         163         164         165
         133         165         166         132
         132         166         167         131
         131         167         168         130
         130         168         169         129
         129         169         170         128
         128         170         171         127
         127         171         172         126
         126         172         173         125
         125         173         174         124
         124         174         175         123
         123         175         176         122
         122         176         177         121
         121         177         178         120
         120         178         179         119
         119         179         180         118
         118         180         181         117
         117         181         182         116
         116         182         183         115
         115         183         184         185
         115         185         186          96
          96         186         187          77
          77         187         188          58
          58         188         189          39
          39         189         134          20
