  TITLE = "SEM Quad mesh" 
  VARIABLES = "x", "y", "z", "material ID"
 ZONE I=           3 ,J=           3 , F=POINT
 -0.22472E+05  0.21238E+04  0.00000E+00 1
 -0.21220E+05  0.21218E+04  0.00000E+00 1
 -0.19969E+05  0.21198E+04  0.00000E+00 1
 -0.22474E+05  0.31753E+04  0.00000E+00 1
 -0.21223E+05  0.31731E+04  0.00000E+00 1
 -0.19971E+05  0.31709E+04  0.00000E+00 1
 -0.22476E+05  0.42268E+04  0.00000E+00 1
 -0.21225E+05  0.42244E+04  0.00000E+00 1
 -0.19974E+05  0.42220E+04  0.00000E+00 1
 ZONE I=           3 ,J=           3 , F=POINT
 -0.19969E+05  0.21198E+04  0.00000E+00 1
 -0.18728E+05  0.21140E+04  0.00000E+00 1
 -0.17487E+05  0.21082E+04  0.00000E+00 1
 -0.19971E+05  0.31709E+04  0.00000E+00 1
 -0.18730E+05  0.31648E+04  0.00000E+00 1
 -0.17488E+05  0.31586E+04  0.00000E+00 1
 -0.19974E+05  0.42220E+04  0.00000E+00 1
 -0.18731E+05  0.42155E+04  0.00000E+00 1
 -0.17489E+05  0.42090E+04  0.00000E+00 1
 ZONE I=           3 ,J=           3 , F=POINT
 -0.17487E+05  0.21082E+04  0.00000E+00 1
 -0.16251E+05  0.20997E+04  0.00000E+00 1
 -0.15014E+05  0.20911E+04  0.00000E+00 1
 -0.17488E+05  0.31586E+04  0.00000E+00 1
 -0.16249E+05  0.31490E+04  0.00000E+00 1
 -0.15011E+05  0.31395E+04  0.00000E+00 1
 -0.17489E+05  0.42090E+04  0.00000E+00 1
 -0.16248E+05  0.41984E+04  0.00000E+00 1
 -0.15008E+05  0.41878E+04  0.00000E+00 1
 ZONE I=           3 ,J=           3 , F=POINT
 -0.15014E+05  0.20911E+04  0.00000E+00 1
 -0.13804E+05  0.20652E+04  0.00000E+00 1
 -0.12594E+05  0.20392E+04  0.00000E+00 1
 -0.15011E+05  0.31395E+04  0.00000E+00 1
 -0.13784E+05  0.31106E+04  0.00000E+00 1
 -0.12557E+05  0.30818E+04  0.00000E+00 1
 -0.15008E+05  0.41878E+04  0.00000E+00 1
 -0.13764E+05  0.41561E+04  0.00000E+00 1
 -0.12520E+05  0.41243E+04  0.00000E+00 1
 ZONE I=           3 ,J=           3 , F=POINT
 -0.12594E+05  0.20392E+04  0.00000E+00 1
 -0.11522E+05  0.19564E+04  0.00000E+00 1
 -0.10451E+05  0.18736E+04  0.00000E+00 1
 -0.12557E+05  0.30818E+04  0.00000E+00 1
 -0.11347E+05  0.29822E+04  0.00000E+00 1
 -0.10138E+05  0.28826E+04  0.00000E+00 1
 -0.12520E+05  0.41243E+04  0.00000E+00 1
 -0.11173E+05  0.40080E+04  0.00000E+00 1
 -0.98249E+04  0.38917E+04  0.00000E+00 1
 ZONE I=           3 ,J=           3 , F=POINT
  0.10451E+05  0.18734E+04  0.00000E+00 1
  0.11522E+05  0.19563E+04  0.00000E+00 1
  0.12594E+05  0.20392E+04  0.00000E+00 1
  0.10138E+05  0.28823E+04  0.00000E+00 1
  0.11348E+05  0.29820E+04  0.00000E+00 1
  0.12557E+05  0.30818E+04  0.00000E+00 1
  0.98256E+04  0.38912E+04  0.00000E+00 1
  0.11173E+05  0.40077E+04  0.00000E+00 1
  0.12520E+05  0.41243E+04  0.00000E+00 1
 ZONE I=           3 ,J=           3 , F=POINT
  0.12594E+05  0.20392E+04  0.00000E+00 1
  0.13804E+05  0.20652E+04  0.00000E+00 1
  0.15014E+05  0.20911E+04  0.00000E+00 1
  0.12557E+05  0.30818E+04  0.00000E+00 1
  0.13784E+05  0.31106E+04  0.00000E+00 1
  0.15011E+05  0.31395E+04  0.00000E+00 1
  0.12520E+05  0.41243E+04  0.00000E+00 1
  0.13764E+05  0.41560E+04  0.00000E+00 1
  0.15008E+05  0.41878E+04  0.00000E+00 1
 ZONE I=           3 ,J=           3 , F=POINT
  0.15014E+05  0.20911E+04  0.00000E+00 1
  0.16251E+05  0.20997E+04  0.00000E+00 1
  0.17487E+05  0.21082E+04  0.00000E+00 1
  0.15011E+05  0.31395E+04  0.00000E+00 1
  0.16249E+05  0.31490E+04  0.00000E+00 1
  0.17488E+05  0.31586E+04  0.00000E+00 1
  0.15008E+05  0.41878E+04  0.00000E+00 1
  0.16248E+05  0.41984E+04  0.00000E+00 1
  0.17489E+05  0.42090E+04  0.00000E+00 1
 ZONE I=           3 ,J=           3 , F=POINT
  0.17487E+05  0.21082E+04  0.00000E+00 1
  0.18728E+05  0.21140E+04  0.00000E+00 1
  0.19969E+05  0.21198E+04  0.00000E+00 1
  0.17488E+05  0.31586E+04  0.00000E+00 1
  0.18730E+05  0.31648E+04  0.00000E+00 1
  0.19971E+05  0.31709E+04  0.00000E+00 1
  0.17489E+05  0.42090E+04  0.00000E+00 1
  0.18731E+05  0.42155E+04  0.00000E+00 1
  0.19974E+05  0.42220E+04  0.00000E+00 1
 ZONE I=           3 ,J=           3 , F=POINT
  0.19969E+05  0.21198E+04  0.00000E+00 1
  0.21220E+05  0.21218E+04  0.00000E+00 1
  0.22472E+05  0.21238E+04  0.00000E+00 1
  0.19971E+05  0.31709E+04  0.00000E+00 1
  0.21223E+05  0.31731E+04  0.00000E+00 1
  0.22474E+05  0.31753E+04  0.00000E+00 1
  0.19974E+05  0.42220E+04  0.00000E+00 1
  0.21225E+05  0.42244E+04  0.00000E+00 1
  0.22476E+05  0.42268E+04  0.00000E+00 1
 ZONE I=           3 ,J=           3 , F=POINT
 -0.22476E+05  0.42268E+04  0.00000E+00 1
 -0.21225E+05  0.42244E+04  0.00000E+00 1
 -0.19974E+05  0.42220E+04  0.00000E+00 1
 -0.22482E+05  0.52703E+04  0.00000E+00 1
 -0.21231E+05  0.52687E+04  0.00000E+00 1
 -0.19981E+05  0.52671E+04  0.00000E+00 1
 -0.22488E+05  0.63138E+04  0.00000E+00 1
 -0.21238E+05  0.63130E+04  0.00000E+00 1
 -0.19987E+05  0.63121E+04  0.00000E+00 1
 ZONE I=           3 ,J=           3 , F=POINT
 -0.19974E+05  0.42220E+04  0.00000E+00 1
 -0.18731E+05  0.42155E+04  0.00000E+00 1
 -0.17489E+05  0.42090E+04  0.00000E+00 1
 -0.19981E+05  0.52671E+04  0.00000E+00 1
 -0.18736E+05  0.52620E+04  0.00000E+00 1
 -0.17491E+05  0.52569E+04  0.00000E+00 1
 -0.19987E+05  0.63121E+04  0.00000E+00 1
 -0.18740E+05  0.63085E+04  0.00000E+00 1
 -0.17493E+05  0.63048E+04  0.00000E+00 1
 ZONE I=           3 ,J=           3 , F=POINT
 -0.17489E+05  0.42090E+04  0.00000E+00 1
 -0.16248E+05  0.41984E+04  0.00000E+00 1
 -0.15008E+05  0.41878E+04  0.00000E+00 1
 -0.17491E+05  0.52569E+04  0.00000E+00 1
 -0.16247E+05  0.52483E+04  0.00000E+00 1
 -0.15003E+05  0.52397E+04  0.00000E+00 1
 -0.17493E+05  0.63048E+04  0.00000E+00 1
 -0.16246E+05  0.62982E+04  0.00000E+00 1
 -0.14998E+05  0.62915E+04  0.00000E+00 1
 ZONE I=           3 ,J=           3 , F=POINT
 -0.15008E+05  0.41878E+04  0.00000E+00 1
 -0.13764E+05  0.41561E+04  0.00000E+00 1
 -0.12520E+05  0.41243E+04  0.00000E+00 1
 -0.15003E+05  0.52397E+04  0.00000E+00 1
 -0.13752E+05  0.52154E+04  0.00000E+00 1
 -0.12500E+05  0.51911E+04  0.00000E+00 1
 -0.14998E+05  0.62915E+04  0.00000E+00 1
 -0.13739E+05  0.62747E+04  0.00000E+00 1
 -0.12480E+05  0.62578E+04  0.00000E+00 1
 ZONE I=           3 ,J=           3 , F=POINT
 -0.12520E+05  0.41243E+04  0.00000E+00 1
 -0.11173E+05  0.40080E+04  0.00000E+00 1
 -0.98249E+04  0.38917E+04  0.00000E+00 1
 -0.12500E+05  0.51911E+04  0.00000E+00 1
 -0.11192E+05  0.51254E+04  0.00000E+00 1
 -0.98839E+04  0.50598E+04  0.00000E+00 1
 -0.12480E+05  0.62578E+04  0.00000E+00 1
 -0.11212E+05  0.62429E+04  0.00000E+00 1
 -0.99429E+04  0.62279E+04  0.00000E+00 1
 ZONE I=           3 ,J=           3 , F=POINT
 -0.98249E+04  0.38917E+04  0.00000E+00 1
 -0.87832E+04  0.41266E+04  0.00000E+00 1
 -0.77415E+04  0.43616E+04  0.00000E+00 1
 -0.98839E+04  0.50598E+04  0.00000E+00 1
 -0.86845E+04  0.51477E+04  0.00000E+00 1
 -0.74850E+04  0.52356E+04  0.00000E+00 1
 -0.99429E+04  0.62279E+04  0.00000E+00 1
 -0.85857E+04  0.61688E+04  0.00000E+00 1
 -0.72286E+04  0.61096E+04  0.00000E+00 1
 ZONE I=           3 ,J=           3 , F=POINT
  0.77437E+04  0.43600E+04  0.00000E+00 1
  0.87846E+04  0.41256E+04  0.00000E+00 1
  0.98256E+04  0.38912E+04  0.00000E+00 1
  0.74863E+04  0.52347E+04  0.00000E+00 1
  0.86853E+04  0.51471E+04  0.00000E+00 1
  0.98843E+04  0.50595E+04  0.00000E+00 1
  0.72290E+04  0.61094E+04  0.00000E+00 1
  0.85860E+04  0.61686E+04  0.00000E+00 1
  0.99430E+04  0.62278E+04  0.00000E+00 1
 ZONE I=           3 ,J=           3 , F=POINT
  0.98256E+04  0.38912E+04  0.00000E+00 1
  0.11173E+05  0.40077E+04  0.00000E+00 1
  0.12520E+05  0.41243E+04  0.00000E+00 1
  0.98843E+04  0.50595E+04  0.00000E+00 1
  0.11192E+05  0.51253E+04  0.00000E+00 1
  0.12500E+05  0.51911E+04  0.00000E+00 1
  0.99430E+04  0.62278E+04  0.00000E+00 1
  0.11212E+05  0.62428E+04  0.00000E+00 1
  0.12480E+05  0.62578E+04  0.00000E+00 1
 ZONE I=           3 ,J=           3 , F=POINT
  0.12520E+05  0.41243E+04  0.00000E+00 1
  0.13764E+05  0.41560E+04  0.00000E+00 1
  0.15008E+05  0.41878E+04  0.00000E+00 1
  0.12500E+05  0.51911E+04  0.00000E+00 1
  0.13752E+05  0.52154E+04  0.00000E+00 1
  0.15003E+05  0.52397E+04  0.00000E+00 1
  0.12480E+05  0.62578E+04  0.00000E+00 1
  0.13739E+05  0.62747E+04  0.00000E+00 1
  0.14998E+05  0.62915E+04  0.00000E+00 1
 ZONE I=           3 ,J=           3 , F=POINT
  0.15008E+05  0.41878E+04  0.00000E+00 1
  0.16248E+05  0.41984E+04  0.00000E+00 1
  0.17489E+05  0.42090E+04  0.00000E+00 1
  0.15003E+05  0.52397E+04  0.00000E+00 1
  0.16247E+05  0.52483E+04  0.00000E+00 1
  0.17491E+05  0.52569E+04  0.00000E+00 1
  0.14998E+05  0.62915E+04  0.00000E+00 1
  0.16246E+05  0.62982E+04  0.00000E+00 1
  0.17493E+05  0.63048E+04  0.00000E+00 1
 ZONE I=           3 ,J=           3 , F=POINT
  0.17489E+05  0.42090E+04  0.00000E+00 1
  0.18731E+05  0.42155E+04  0.00000E+00 1
  0.19974E+05  0.42220E+04  0.00000E+00 1
  0.17491E+05  0.52569E+04  0.00000E+00 1
  0.18736E+05  0.52620E+04  0.00000E+00 1
  0.19981E+05  0.52671E+04  0.00000E+00 1
  0.17493E+05  0.63048E+04  0.00000E+00 1
  0.18740E+05  0.63085E+04  0.00000E+00 1
  0.19987E+05  0.63121E+04  0.00000E+00 1
 ZONE I=           3 ,J=           3 , F=POINT
  0.19974E+05  0.42220E+04  0.00000E+00 1
  0.21225E+05  0.42244E+04  0.00000E+00 1
  0.22476E+05  0.42268E+04  0.00000E+00 1
  0.19981E+05  0.52671E+04  0.00000E+00 1
  0.21231E+05  0.52687E+04  0.00000E+00 1
  0.22482E+05  0.52703E+04  0.00000E+00 1
  0.19987E+05  0.63121E+04  0.00000E+00 1
  0.21238E+05  0.63130E+04  0.00000E+00 1
  0.22488E+05  0.63138E+04  0.00000E+00 1
 ZONE I=           3 ,J=           3 , F=POINT
 -0.22488E+05  0.63138E+04  0.00000E+00 1
 -0.21238E+05  0.63130E+04  0.00000E+00 1
 -0.19987E+05  0.63121E+04  0.00000E+00 1
 -0.22492E+05  0.73586E+04  0.00000E+00 1
 -0.21242E+05  0.73583E+04  0.00000E+00 1
 -0.19991E+05  0.73579E+04  0.00000E+00 1
 -0.22497E+05  0.84035E+04  0.00000E+00 1
 -0.21246E+05  0.84036E+04  0.00000E+00 1
 -0.19996E+05  0.84037E+04  0.00000E+00 1
 ZONE I=           3 ,J=           3 , F=POINT
 -0.19987E+05  0.63121E+04  0.00000E+00 1
 -0.18740E+05  0.63085E+04  0.00000E+00 1
 -0.17493E+05  0.63048E+04  0.00000E+00 1
 -0.19991E+05  0.73579E+04  0.00000E+00 1
 -0.18743E+05  0.73555E+04  0.00000E+00 1
 -0.17495E+05  0.73531E+04  0.00000E+00 1
 -0.19996E+05  0.84037E+04  0.00000E+00 1
 -0.18747E+05  0.84026E+04  0.00000E+00 1
 -0.17497E+05  0.84014E+04  0.00000E+00 1
 ZONE I=           3 ,J=           3 , F=POINT
 -0.17493E+05  0.63048E+04  0.00000E+00 1
 -0.16246E+05  0.62982E+04  0.00000E+00 1
 -0.14998E+05  0.62915E+04  0.00000E+00 1
 -0.17495E+05  0.73531E+04  0.00000E+00 1
 -0.16247E+05  0.73486E+04  0.00000E+00 1
 -0.14998E+05  0.73441E+04  0.00000E+00 1
 -0.17497E+05  0.84014E+04  0.00000E+00 1
 -0.16247E+05  0.83990E+04  0.00000E+00 1
 -0.14997E+05  0.83966E+04  0.00000E+00 1
 ZONE I=           3 ,J=           3 , F=POINT
 -0.14998E+05  0.62915E+04  0.00000E+00 1
 -0.13739E+05  0.62747E+04  0.00000E+00 1
 -0.12480E+05  0.62578E+04  0.00000E+00 1
 -0.14998E+05  0.73441E+04  0.00000E+00 1
 -0.13741E+05  0.73334E+04  0.00000E+00 1
 -0.12485E+05  0.73227E+04  0.00000E+00 1
 -0.14997E+05  0.83966E+04  0.00000E+00 1
 -0.13743E+05  0.83921E+04  0.00000E+00 1
 -0.12490E+05  0.83876E+04  0.00000E+00 1
 ZONE I=           3 ,J=           3 , F=POINT
 -0.12480E+05  0.62578E+04  0.00000E+00 1
 -0.11212E+05  0.62429E+04  0.00000E+00 1
 -0.99429E+04  0.62279E+04  0.00000E+00 1
 -0.12485E+05  0.73227E+04  0.00000E+00 1
 -0.11219E+05  0.73112E+04  0.00000E+00 1
 -0.99528E+04  0.72997E+04  0.00000E+00 1
 -0.12490E+05  0.83876E+04  0.00000E+00 1
 -0.11226E+05  0.83795E+04  0.00000E+00 1
 -0.99628E+04  0.83714E+04  0.00000E+00 1
 ZONE I=           3 ,J=           3 , F=POINT
 -0.99429E+04  0.62279E+04  0.00000E+00 1
 -0.85857E+04  0.61688E+04  0.00000E+00 1
 -0.72286E+04  0.61096E+04  0.00000E+00 1
 -0.99528E+04  0.72997E+04  0.00000E+00 1
 -0.86442E+04  0.72728E+04  0.00000E+00 1
 -0.73355E+04  0.72460E+04  0.00000E+00 1
 -0.99628E+04  0.83714E+04  0.00000E+00 1
 -0.87026E+04  0.83768E+04  0.00000E+00 1
 -0.74424E+04  0.83823E+04  0.00000E+00 1
 ZONE I=           3 ,J=           3 , F=POINT
 -0.72286E+04  0.61096E+04  0.00000E+00 1
 -0.60844E+04  0.63271E+04  0.00000E+00 1
 -0.49402E+04  0.65445E+04  0.00000E+00 1
 -0.73355E+04  0.72460E+04  0.00000E+00 1
 -0.61433E+04  0.73579E+04  0.00000E+00 1
 -0.49512E+04  0.74699E+04  0.00000E+00 1
 -0.74424E+04  0.83823E+04  0.00000E+00 1
 -0.62023E+04  0.83888E+04  0.00000E+00 1
 -0.49622E+04  0.83953E+04  0.00000E+00 1
 ZONE I=           3 ,J=           3 , F=POINT
 -0.49402E+04  0.65445E+04  0.00000E+00 1
 -0.37040E+04  0.62637E+04  0.00000E+00 1
 -0.24679E+04  0.59829E+04  0.00000E+00 1
 -0.49512E+04  0.74699E+04  0.00000E+00 1
 -0.37147E+04  0.73266E+04  0.00000E+00 1
 -0.24782E+04  0.71833E+04  0.00000E+00 1
 -0.49622E+04  0.83953E+04  0.00000E+00 1
 -0.37253E+04  0.83895E+04  0.00000E+00 1
 -0.24885E+04  0.83837E+04  0.00000E+00 1
 ZONE I=           3 ,J=           3 , F=POINT
 -0.24679E+04  0.59829E+04  0.00000E+00 1
 -0.12339E+04  0.62495E+04  0.00000E+00 1
  0.51891E-01  0.65162E+04  0.00000E+00 1
 -0.24782E+04  0.71833E+04  0.00000E+00 1
 -0.12391E+04  0.73158E+04  0.00000E+00 1
  0.31579E-01  0.74483E+04  0.00000E+00 1
 -0.24885E+04  0.83837E+04  0.00000E+00 1
 -0.12443E+04  0.83820E+04  0.00000E+00 1
  0.11268E-01  0.83804E+04  0.00000E+00 1
 ZONE I=           3 ,J=           3 , F=POINT
  0.51891E-01  0.65162E+04  0.00000E+00 1
  0.12342E+04  0.62494E+04  0.00000E+00 1
  0.24683E+04  0.59827E+04  0.00000E+00 1
  0.31579E-01  0.74483E+04  0.00000E+00 1
  0.12392E+04  0.73157E+04  0.00000E+00 1
  0.24784E+04  0.71832E+04  0.00000E+00 1
  0.11268E-01  0.83804E+04  0.00000E+00 1
  0.12443E+04  0.83820E+04  0.00000E+00 1
  0.24885E+04  0.83837E+04  0.00000E+00 1
 ZONE I=           3 ,J=           3 , F=POINT
  0.24683E+04  0.59827E+04  0.00000E+00 1
  0.37043E+04  0.62635E+04  0.00000E+00 1
  0.49403E+04  0.65444E+04  0.00000E+00 1
  0.24784E+04  0.71832E+04  0.00000E+00 1
  0.37148E+04  0.73265E+04  0.00000E+00 1
  0.49512E+04  0.74698E+04  0.00000E+00 1
  0.24885E+04  0.83837E+04  0.00000E+00 1
  0.37254E+04  0.83895E+04  0.00000E+00 1
  0.49622E+04  0.83953E+04  0.00000E+00 1
 ZONE I=           3 ,J=           3 , F=POINT
  0.49403E+04  0.65444E+04  0.00000E+00 1
  0.60846E+04  0.63269E+04  0.00000E+00 1
  0.72290E+04  0.61094E+04  0.00000E+00 1
  0.49512E+04  0.74698E+04  0.00000E+00 1
  0.61435E+04  0.73578E+04  0.00000E+00 1
  0.73357E+04  0.72458E+04  0.00000E+00 1
  0.49622E+04  0.83953E+04  0.00000E+00 1
  0.62023E+04  0.83888E+04  0.00000E+00 1
  0.74424E+04  0.83823E+04  0.00000E+00 1
 ZONE I=           3 ,J=           3 , F=POINT
  0.72290E+04  0.61094E+04  0.00000E+00 1
  0.85860E+04  0.61686E+04  0.00000E+00 1
  0.99430E+04  0.62278E+04  0.00000E+00 1
  0.73357E+04  0.72458E+04  0.00000E+00 1
  0.86443E+04  0.72727E+04  0.00000E+00 1
  0.99529E+04  0.72996E+04  0.00000E+00 1
  0.74424E+04  0.83823E+04  0.00000E+00 1
  0.87026E+04  0.83768E+04  0.00000E+00 1
  0.99628E+04  0.83714E+04  0.00000E+00 1
 ZONE I=           3 ,J=           3 , F=POINT
  0.99430E+04  0.62278E+04  0.00000E+00 1
  0.11212E+05  0.62428E+04  0.00000E+00 1
  0.12480E+05  0.62578E+04  0.00000E+00 1
  0.99529E+04  0.72996E+04  0.00000E+00 1
  0.11219E+05  0.73112E+04  0.00000E+00 1
  0.12485E+05  0.73227E+04  0.00000E+00 1
  0.99628E+04  0.83714E+04  0.00000E+00 1
  0.11226E+05  0.83795E+04  0.00000E+00 1
  0.12490E+05  0.83876E+04  0.00000E+00 1
 ZONE I=           3 ,J=           3 , F=POINT
  0.12480E+05  0.62578E+04  0.00000E+00 1
  0.13739E+05  0.62747E+04  0.00000E+00 1
  0.14998E+05  0.62915E+04  0.00000E+00 1
  0.12485E+05  0.73227E+04  0.00000E+00 1
  0.13741E+05  0.73334E+04  0.00000E+00 1
  0.14998E+05  0.73441E+04  0.00000E+00 1
  0.12490E+05  0.83876E+04  0.00000E+00 1
  0.13743E+05  0.83921E+04  0.00000E+00 1
  0.14997E+05  0.83966E+04  0.00000E+00 1
 ZONE I=           3 ,J=           3 , F=POINT
  0.14998E+05  0.62915E+04  0.00000E+00 1
  0.16246E+05  0.62982E+04  0.00000E+00 1
  0.17493E+05  0.63048E+04  0.00000E+00 1
  0.14998E+05  0.73441E+04  0.00000E+00 1
  0.16247E+05  0.73486E+04  0.00000E+00 1
  0.17495E+05  0.73531E+04  0.00000E+00 1
  0.14997E+05  0.83966E+04  0.00000E+00 1
  0.16247E+05  0.83990E+04  0.00000E+00 1
  0.17497E+05  0.84014E+04  0.00000E+00 1
 ZONE I=           3 ,J=           3 , F=POINT
  0.17493E+05  0.63048E+04  0.00000E+00 1
  0.18740E+05  0.63085E+04  0.00000E+00 1
  0.19987E+05  0.63121E+04  0.00000E+00 1
  0.17495E+05  0.73531E+04  0.00000E+00 1
  0.18743E+05  0.73555E+04  0.00000E+00 1
  0.19991E+05  0.73579E+04  0.00000E+00 1
  0.17497E+05  0.84014E+04  0.00000E+00 1
  0.18747E+05  0.84026E+04  0.00000E+00 1
  0.19996E+05  0.84037E+04  0.00000E+00 1
 ZONE I=           3 ,J=           3 , F=POINT
  0.19987E+05  0.63121E+04  0.00000E+00 1
  0.21238E+05  0.63130E+04  0.00000E+00 1
  0.22488E+05  0.63138E+04  0.00000E+00 1
  0.19991E+05  0.73579E+04  0.00000E+00 1
  0.21242E+05  0.73583E+04  0.00000E+00 1
  0.22492E+05  0.73586E+04  0.00000E+00 1
  0.19996E+05  0.84037E+04  0.00000E+00 1
  0.21246E+05  0.84036E+04  0.00000E+00 1
  0.22497E+05  0.84035E+04  0.00000E+00 1
 ZONE I=           3 ,J=           3 , F=POINT
 -0.22497E+05  0.84035E+04  0.00000E+00 1
 -0.21246E+05  0.84036E+04  0.00000E+00 1
 -0.19996E+05  0.84037E+04  0.00000E+00 1
 -0.22498E+05  0.94517E+04  0.00000E+00 1
 -0.21247E+05  0.94518E+04  0.00000E+00 1
 -0.19997E+05  0.94519E+04  0.00000E+00 1
 -0.22499E+05  0.10500E+05  0.00000E+00 1
 -0.21249E+05  0.10500E+05  0.00000E+00 1
 -0.19998E+05  0.10500E+05  0.00000E+00 1
 ZONE I=           3 ,J=           3 , F=POINT
 -0.19996E+05  0.84037E+04  0.00000E+00 1
 -0.18747E+05  0.84026E+04  0.00000E+00 1
 -0.17497E+05  0.84014E+04  0.00000E+00 1
 -0.19997E+05  0.94519E+04  0.00000E+00 1
 -0.18748E+05  0.94512E+04  0.00000E+00 1
 -0.17498E+05  0.94506E+04  0.00000E+00 1
 -0.19998E+05  0.10500E+05  0.00000E+00 1
 -0.18749E+05  0.10500E+05  0.00000E+00 1
 -0.17499E+05  0.10500E+05  0.00000E+00 1
 ZONE I=           3 ,J=           3 , F=POINT
 -0.17497E+05  0.84014E+04  0.00000E+00 1
 -0.16247E+05  0.83990E+04  0.00000E+00 1
 -0.14997E+05  0.83966E+04  0.00000E+00 1
 -0.17498E+05  0.94506E+04  0.00000E+00 1
 -0.16248E+05  0.94492E+04  0.00000E+00 1
 -0.14998E+05  0.94478E+04  0.00000E+00 1
 -0.17499E+05  0.10500E+05  0.00000E+00 1
 -0.16249E+05  0.10499E+05  0.00000E+00 1
 -0.14999E+05  0.10499E+05  0.00000E+00 1
 ZONE I=           3 ,J=           3 , F=POINT
 -0.14997E+05  0.83966E+04  0.00000E+00 1
 -0.13743E+05  0.83921E+04  0.00000E+00 1
 -0.12490E+05  0.83876E+04  0.00000E+00 1
 -0.14998E+05  0.94478E+04  0.00000E+00 1
 -0.13745E+05  0.94450E+04  0.00000E+00 1
 -0.12493E+05  0.94422E+04  0.00000E+00 1
 -0.14999E+05  0.10499E+05  0.00000E+00 1
 -0.13747E+05  0.10498E+05  0.00000E+00 1
 -0.12496E+05  0.10497E+05  0.00000E+00 1
 ZONE I=           3 ,J=           3 , F=POINT
 -0.12490E+05  0.83876E+04  0.00000E+00 1
 -0.11226E+05  0.83795E+04  0.00000E+00 1
 -0.99628E+04  0.83714E+04  0.00000E+00 1
 -0.12493E+05  0.94422E+04  0.00000E+00 1
 -0.11235E+05  0.94377E+04  0.00000E+00 1
 -0.99769E+04  0.94331E+04  0.00000E+00 1
 -0.12496E+05  0.10497E+05  0.00000E+00 1
 -0.11244E+05  0.10496E+05  0.00000E+00 1
 -0.99909E+04  0.10495E+05  0.00000E+00 1
 ZONE I=           3 ,J=           3 , F=POINT
 -0.99628E+04  0.83714E+04  0.00000E+00 1
 -0.87026E+04  0.83768E+04  0.00000E+00 1
 -0.74424E+04  0.83823E+04  0.00000E+00 1
 -0.99769E+04  0.94331E+04  0.00000E+00 1
 -0.87210E+04  0.94360E+04  0.00000E+00 1
 -0.74651E+04  0.94389E+04  0.00000E+00 1
 -0.99909E+04  0.10495E+05  0.00000E+00 1
 -0.87394E+04  0.10495E+05  0.00000E+00 1
 -0.74879E+04  0.10496E+05  0.00000E+00 1
 ZONE I=           3 ,J=           3 , F=POINT
 -0.74424E+04  0.83823E+04  0.00000E+00 1
 -0.62023E+04  0.83888E+04  0.00000E+00 1
 -0.49622E+04  0.83953E+04  0.00000E+00 1
 -0.74651E+04  0.94389E+04  0.00000E+00 1
 -0.62208E+04  0.94425E+04  0.00000E+00 1
 -0.49765E+04  0.94460E+04  0.00000E+00 1
 -0.74879E+04  0.10496E+05  0.00000E+00 1
 -0.62394E+04  0.10496E+05  0.00000E+00 1
 -0.49909E+04  0.10497E+05  0.00000E+00 1
 ZONE I=           3 ,J=           3 , F=POINT
 -0.49622E+04  0.83953E+04  0.00000E+00 1
 -0.37253E+04  0.83895E+04  0.00000E+00 1
 -0.24885E+04  0.83837E+04  0.00000E+00 1
 -0.49765E+04  0.94460E+04  0.00000E+00 1
 -0.37345E+04  0.94428E+04  0.00000E+00 1
 -0.24924E+04  0.94396E+04  0.00000E+00 1
 -0.49909E+04  0.10497E+05  0.00000E+00 1
 -0.37436E+04  0.10496E+05  0.00000E+00 1
 -0.24963E+04  0.10496E+05  0.00000E+00 1
 ZONE I=           3 ,J=           3 , F=POINT
 -0.24885E+04  0.83837E+04  0.00000E+00 1
 -0.12443E+04  0.83820E+04  0.00000E+00 1
  0.11268E-01  0.83804E+04  0.00000E+00 1
 -0.24924E+04  0.94396E+04  0.00000E+00 1
 -0.12462E+04  0.94385E+04  0.00000E+00 1
  0.59723E-02  0.94374E+04  0.00000E+00 1
 -0.24963E+04  0.10496E+05  0.00000E+00 1
 -0.12482E+04  0.10495E+05  0.00000E+00 1
  0.67659E-03  0.10495E+05  0.00000E+00 1
 ZONE I=           3 ,J=           3 , F=POINT
  0.11268E-01  0.83804E+04  0.00000E+00 1
  0.12443E+04  0.83820E+04  0.00000E+00 1
  0.24885E+04  0.83837E+04  0.00000E+00 1
  0.59723E-02  0.94374E+04  0.00000E+00 1
  0.12462E+04  0.94385E+04  0.00000E+00 1
  0.24924E+04  0.94396E+04  0.00000E+00 1
  0.67659E-03  0.10495E+05  0.00000E+00 1
  0.12482E+04  0.10495E+05  0.00000E+00 1
  0.24963E+04  0.10496E+05  0.00000E+00 1
 ZONE I=           3 ,J=           3 , F=POINT
  0.24885E+04  0.83837E+04  0.00000E+00 1
  0.37254E+04  0.83895E+04  0.00000E+00 1
  0.49622E+04  0.83953E+04  0.00000E+00 1
  0.24924E+04  0.94396E+04  0.00000E+00 1
  0.37345E+04  0.94428E+04  0.00000E+00 1
  0.49765E+04  0.94460E+04  0.00000E+00 1
  0.24963E+04  0.10496E+05  0.00000E+00 1
  0.37436E+04  0.10496E+05  0.00000E+00 1
  0.49909E+04  0.10497E+05  0.00000E+00 1
 ZONE I=           3 ,J=           3 , F=POINT
  0.49622E+04  0.83953E+04  0.00000E+00 1
  0.62023E+04  0.83888E+04  0.00000E+00 1
  0.74424E+04  0.83823E+04  0.00000E+00 1
  0.49765E+04  0.94460E+04  0.00000E+00 1
  0.62208E+04  0.94425E+04  0.00000E+00 1
  0.74652E+04  0.94389E+04  0.00000E+00 1
  0.49909E+04  0.10497E+05  0.00000E+00 1
  0.62394E+04  0.10496E+05  0.00000E+00 1
  0.74879E+04  0.10496E+05  0.00000E+00 1
 ZONE I=           3 ,J=           3 , F=POINT
  0.74424E+04  0.83823E+04  0.00000E+00 1
  0.87026E+04  0.83768E+04  0.00000E+00 1
  0.99628E+04  0.83714E+04  0.00000E+00 1
  0.74652E+04  0.94389E+04  0.00000E+00 1
  0.87210E+04  0.94360E+04  0.00000E+00 1
  0.99769E+04  0.94331E+04  0.00000E+00 1
  0.74879E+04  0.10496E+05  0.00000E+00 1
  0.87394E+04  0.10495E+05  0.00000E+00 1
  0.99910E+04  0.10495E+05  0.00000E+00 1
 ZONE I=           3 ,J=           3 , F=POINT
  0.99628E+04  0.83714E+04  0.00000E+00 1
  0.11226E+05  0.83795E+04  0.00000E+00 1
  0.12490E+05  0.83876E+04  0.00000E+00 1
  0.99769E+04  0.94331E+04  0.00000E+00 1
  0.11235E+05  0.94377E+04  0.00000E+00 1
  0.12493E+05  0.94422E+04  0.00000E+00 1
  0.99910E+04  0.10495E+05  0.00000E+00 1
  0.11244E+05  0.10496E+05  0.00000E+00 1
  0.12496E+05  0.10497E+05  0.00000E+00 1
 ZONE I=           3 ,J=           3 , F=POINT
  0.12490E+05  0.83876E+04  0.00000E+00 1
  0.13743E+05  0.83921E+04  0.00000E+00 1
  0.14997E+05  0.83966E+04  0.00000E+00 1
  0.12493E+05  0.94422E+04  0.00000E+00 1
  0.13745E+05  0.94450E+04  0.00000E+00 1
  0.14998E+05  0.94478E+04  0.00000E+00 1
  0.12496E+05  0.10497E+05  0.00000E+00 1
  0.13747E+05  0.10498E+05  0.00000E+00 1
  0.14999E+05  0.10499E+05  0.00000E+00 1
 ZONE I=           3 ,J=           3 , F=POINT
  0.14997E+05  0.83966E+04  0.00000E+00 1
  0.16247E+05  0.83990E+04  0.00000E+00 1
  0.17497E+05  0.84014E+04  0.00000E+00 1
  0.14998E+05  0.94478E+04  0.00000E+00 1
  0.16248E+05  0.94492E+04  0.00000E+00 1
  0.17498E+05  0.94506E+04  0.00000E+00 1
  0.14999E+05  0.10499E+05  0.00000E+00 1
  0.16249E+05  0.10499E+05  0.00000E+00 1
  0.17499E+05  0.10500E+05  0.00000E+00 1
 ZONE I=           3 ,J=           3 , F=POINT
  0.17497E+05  0.84014E+04  0.00000E+00 1
  0.18747E+05  0.84026E+04  0.00000E+00 1
  0.19996E+05  0.84037E+04  0.00000E+00 1
  0.17498E+05  0.94506E+04  0.00000E+00 1
  0.18748E+05  0.94512E+04  0.00000E+00 1
  0.19997E+05  0.94519E+04  0.00000E+00 1
  0.17499E+05  0.10500E+05  0.00000E+00 1
  0.18749E+05  0.10500E+05  0.00000E+00 1
  0.19998E+05  0.10500E+05  0.00000E+00 1
 ZONE I=           3 ,J=           3 , F=POINT
  0.19996E+05  0.84037E+04  0.00000E+00 1
  0.21246E+05  0.84036E+04  0.00000E+00 1
  0.22497E+05  0.84035E+04  0.00000E+00 1
  0.19997E+05  0.94519E+04  0.00000E+00 1
  0.21247E+05  0.94518E+04  0.00000E+00 1
  0.22498E+05  0.94517E+04  0.00000E+00 1
  0.19998E+05  0.10500E+05  0.00000E+00 1
  0.21249E+05  0.10500E+05  0.00000E+00 1
  0.22499E+05  0.10500E+05  0.00000E+00 1
 ZONE I=           3 ,J=           3 , F=POINT
 -0.22499E+05  0.10500E+05  0.00000E+00 1
 -0.21249E+05  0.10500E+05  0.00000E+00 1
 -0.19998E+05  0.10500E+05  0.00000E+00 1
 -0.22498E+05  0.11548E+05  0.00000E+00 1
 -0.21247E+05  0.11548E+05  0.00000E+00 1
 -0.19997E+05  0.11548E+05  0.00000E+00 1
 -0.22497E+05  0.12597E+05  0.00000E+00 1
 -0.21246E+05  0.12596E+05  0.00000E+00 1
 -0.19996E+05  0.12596E+05  0.00000E+00 1
 ZONE I=           3 ,J=           3 , F=POINT
 -0.19998E+05  0.10500E+05  0.00000E+00 1
 -0.18749E+05  0.10500E+05  0.00000E+00 1
 -0.17499E+05  0.10500E+05  0.00000E+00 1
 -0.19997E+05  0.11548E+05  0.00000E+00 1
 -0.18748E+05  0.11548E+05  0.00000E+00 1
 -0.17498E+05  0.11549E+05  0.00000E+00 1
 -0.19996E+05  0.12596E+05  0.00000E+00 1
 -0.18747E+05  0.12597E+05  0.00000E+00 1
 -0.17497E+05  0.12598E+05  0.00000E+00 1
 ZONE I=           3 ,J=           3 , F=POINT
 -0.17499E+05  0.10500E+05  0.00000E+00 1
 -0.16249E+05  0.10499E+05  0.00000E+00 1
 -0.14999E+05  0.10499E+05  0.00000E+00 1
 -0.17498E+05  0.11549E+05  0.00000E+00 1
 -0.16248E+05  0.11549E+05  0.00000E+00 1
 -0.14999E+05  0.11549E+05  0.00000E+00 1
 -0.17497E+05  0.12598E+05  0.00000E+00 1
 -0.16248E+05  0.12598E+05  0.00000E+00 1
 -0.14999E+05  0.12599E+05  0.00000E+00 1
 ZONE I=           3 ,J=           3 , F=POINT
 -0.14999E+05  0.10499E+05  0.00000E+00 1
 -0.13747E+05  0.10498E+05  0.00000E+00 1
 -0.12496E+05  0.10497E+05  0.00000E+00 1
 -0.14999E+05  0.11549E+05  0.00000E+00 1
 -0.13748E+05  0.11549E+05  0.00000E+00 1
 -0.12498E+05  0.11548E+05  0.00000E+00 1
 -0.14999E+05  0.12599E+05  0.00000E+00 1
 -0.13749E+05  0.12599E+05  0.00000E+00 1
 -0.12499E+05  0.12599E+05  0.00000E+00 1
 ZONE I=           3 ,J=           3 , F=POINT
 -0.12496E+05  0.10497E+05  0.00000E+00 1
 -0.11244E+05  0.10496E+05  0.00000E+00 1
 -0.99909E+04  0.10495E+05  0.00000E+00 1
 -0.12498E+05  0.11548E+05  0.00000E+00 1
 -0.11246E+05  0.11548E+05  0.00000E+00 1
 -0.99947E+04  0.11547E+05  0.00000E+00 1
 -0.12499E+05  0.12599E+05  0.00000E+00 1
 -0.11249E+05  0.12599E+05  0.00000E+00 1
 -0.99985E+04  0.12599E+05  0.00000E+00 1
 ZONE I=           3 ,J=           3 , F=POINT
 -0.99909E+04  0.10495E+05  0.00000E+00 1
 -0.87394E+04  0.10495E+05  0.00000E+00 1
 -0.74879E+04  0.10496E+05  0.00000E+00 1
 -0.99947E+04  0.11547E+05  0.00000E+00 1
 -0.87439E+04  0.11547E+05  0.00000E+00 1
 -0.74930E+04  0.11547E+05  0.00000E+00 1
 -0.99985E+04  0.12599E+05  0.00000E+00 1
 -0.87484E+04  0.12599E+05  0.00000E+00 1
 -0.74982E+04  0.12599E+05  0.00000E+00 1
 ZONE I=           3 ,J=           3 , F=POINT
 -0.74879E+04  0.10496E+05  0.00000E+00 1
 -0.62394E+04  0.10496E+05  0.00000E+00 1
 -0.49909E+04  0.10497E+05  0.00000E+00 1
 -0.74930E+04  0.11547E+05  0.00000E+00 1
 -0.62439E+04  0.11548E+05  0.00000E+00 1
 -0.49947E+04  0.11548E+05  0.00000E+00 1
 -0.74982E+04  0.12599E+05  0.00000E+00 1
 -0.62484E+04  0.12599E+05  0.00000E+00 1
 -0.49986E+04  0.12599E+05  0.00000E+00 1
 ZONE I=           3 ,J=           3 , F=POINT
 -0.49909E+04  0.10497E+05  0.00000E+00 1
 -0.37436E+04  0.10496E+05  0.00000E+00 1
 -0.24963E+04  0.10496E+05  0.00000E+00 1
 -0.49947E+04  0.11548E+05  0.00000E+00 1
 -0.37463E+04  0.11548E+05  0.00000E+00 1
 -0.24978E+04  0.11547E+05  0.00000E+00 1
 -0.49986E+04  0.12599E+05  0.00000E+00 1
 -0.37489E+04  0.12599E+05  0.00000E+00 1
 -0.24993E+04  0.12599E+05  0.00000E+00 1
 ZONE I=           3 ,J=           3 , F=POINT
 -0.24963E+04  0.10496E+05  0.00000E+00 1
 -0.12482E+04  0.10495E+05  0.00000E+00 1
  0.67659E-03  0.10495E+05  0.00000E+00 1
 -0.24978E+04  0.11547E+05  0.00000E+00 1
 -0.12489E+04  0.11547E+05  0.00000E+00 1
  0.35202E-03  0.11547E+05  0.00000E+00 1
 -0.24993E+04  0.12599E+05  0.00000E+00 1
 -0.12497E+04  0.12599E+05  0.00000E+00 1
  0.27448E-04  0.12599E+05  0.00000E+00 1
 ZONE I=           3 ,J=           3 , F=POINT
  0.67659E-03  0.10495E+05  0.00000E+00 1
  0.12482E+04  0.10495E+05  0.00000E+00 1
  0.24963E+04  0.10496E+05  0.00000E+00 1
  0.35202E-03  0.11547E+05  0.00000E+00 1
  0.12489E+04  0.11547E+05  0.00000E+00 1
  0.24978E+04  0.11547E+05  0.00000E+00 1
  0.27448E-04  0.12599E+05  0.00000E+00 1
  0.12497E+04  0.12599E+05  0.00000E+00 1
  0.24993E+04  0.12599E+05  0.00000E+00 1
 ZONE I=           3 ,J=           3 , F=POINT
  0.24963E+04  0.10496E+05  0.00000E+00 1
  0.37436E+04  0.10496E+05  0.00000E+00 1
  0.49909E+04  0.10497E+05  0.00000E+00 1
  0.24978E+04  0.11547E+05  0.00000E+00 1
  0.37463E+04  0.11548E+05  0.00000E+00 1
  0.49947E+04  0.11548E+05  0.00000E+00 1
  0.24993E+04  0.12599E+05  0.00000E+00 1
  0.37489E+04  0.12599E+05  0.00000E+00 1
  0.49986E+04  0.12599E+05  0.00000E+00 1
 ZONE I=           3 ,J=           3 , F=POINT
  0.49909E+04  0.10497E+05  0.00000E+00 1
  0.62394E+04  0.10496E+05  0.00000E+00 1
  0.74879E+04  0.10496E+05  0.00000E+00 1
  0.49947E+04  0.11548E+05  0.00000E+00 1
  0.62439E+04  0.11548E+05  0.00000E+00 1
  0.74930E+04  0.11547E+05  0.00000E+00 1
  0.49986E+04  0.12599E+05  0.00000E+00 1
  0.62484E+04  0.12599E+05  0.00000E+00 1
  0.74982E+04  0.12599E+05  0.00000E+00 1
 ZONE I=           3 ,J=           3 , F=POINT
  0.74879E+04  0.10496E+05  0.00000E+00 1
  0.87394E+04  0.10495E+05  0.00000E+00 1
  0.99910E+04  0.10495E+05  0.00000E+00 1