  TITLE = "SEM Quad mesh" 
  VARIABLES = "x", "y", "z", "material ID"
 ZONE I=           3 ,J=           3 , F=POINT
 -0.19935E+05  0.42410E+04  0.00000E+00 1
 -0.17428E+05  0.42380E+04  0.00000E+00 1
 -0.14920E+05  0.42349E+04  0.00000E+00 1
 -0.19932E+05  0.63337E+04  0.00000E+00 1
 -0.17424E+05  0.63311E+04  0.00000E+00 1
 -0.14917E+05  0.63285E+04  0.00000E+00 1
 -0.19928E+05  0.84265E+04  0.00000E+00 1
 -0.17421E+05  0.84243E+04  0.00000E+00 1
 -0.14914E+05  0.84221E+04  0.00000E+00 1
 ZONE I=           3 ,J=           3 , F=POINT
 -0.14920E+05  0.42349E+04  0.00000E+00 1
 -0.12416E+05  0.42332E+04  0.00000E+00 1
 -0.99132E+04  0.42315E+04  0.00000E+00 1
 -0.14917E+05  0.63285E+04  0.00000E+00 1
 -0.12422E+05  0.63265E+04  0.00000E+00 1
 -0.99262E+04  0.63245E+04  0.00000E+00 1
 -0.14914E+05  0.84221E+04  0.00000E+00 1
 -0.12427E+05  0.84198E+04  0.00000E+00 1
 -0.99392E+04  0.84174E+04  0.00000E+00 1
 ZONE I=           3 ,J=           3 , F=POINT
 -0.99132E+04  0.42315E+04  0.00000E+00 1
 -0.74130E+04  0.42432E+04  0.00000E+00 1
 -0.49128E+04  0.42550E+04  0.00000E+00 1
 -0.99262E+04  0.63245E+04  0.00000E+00 1
 -0.74335E+04  0.63309E+04  0.00000E+00 1
 -0.49408E+04  0.63373E+04  0.00000E+00 1
 -0.99392E+04  0.84174E+04  0.00000E+00 1
 -0.74540E+04  0.84185E+04  0.00000E+00 1
 -0.49688E+04  0.84196E+04  0.00000E+00 1
 ZONE I=           3 ,J=           3 , F=POINT
 -0.49128E+04  0.42550E+04  0.00000E+00 1
 -0.24564E+04  0.42650E+04  0.00000E+00 1
  0.28255E-03  0.42751E+04  0.00000E+00 1
 -0.49408E+04  0.63373E+04  0.00000E+00 1
 -0.24704E+04  0.63431E+04  0.00000E+00 1
  0.19351E-03  0.63489E+04  0.00000E+00 1
 -0.49688E+04  0.84196E+04  0.00000E+00 1
 -0.24844E+04  0.84211E+04  0.00000E+00 1
  0.10447E-03  0.84226E+04  0.00000E+00 1
 ZONE I=           3 ,J=           3 , F=POINT
  0.28255E-03  0.42751E+04  0.00000E+00 1
  0.24564E+04  0.42650E+04  0.00000E+00 1
  0.49128E+04  0.42550E+04  0.00000E+00 1
  0.19351E-03  0.63489E+04  0.00000E+00 1
  0.24704E+04  0.63431E+04  0.00000E+00 1
  0.49408E+04  0.63373E+04  0.00000E+00 1
  0.10447E-03  0.84226E+04  0.00000E+00 1
  0.24844E+04  0.84211E+04  0.00000E+00 1
  0.49688E+04  0.84196E+04  0.00000E+00 1
 ZONE I=           3 ,J=           3 , F=POINT
  0.49128E+04  0.42550E+04  0.00000E+00 1
  0.74130E+04  0.42432E+04  0.00000E+00 1
  0.99132E+04  0.42315E+04  0.00000E+00 1
  0.49408E+04  0.63373E+04  0.00000E+00 1
  0.74335E+04  0.63309E+04  0.00000E+00 1
  0.99262E+04  0.63245E+04  0.00000E+00 1
  0.49688E+04  0.84196E+04  0.00000E+00 1
  0.74540E+04  0.84185E+04  0.00000E+00 1
  0.99392E+04  0.84174E+04  0.00000E+00 1
 ZONE I=           3 ,J=           3 , F=POINT
  0.99132E+04  0.42315E+04  0.00000E+00 1
  0.12416E+05  0.42332E+04  0.00000E+00 1
  0.14920E+05  0.42349E+04  0.00000E+00 1
  0.99262E+04  0.63245E+04  0.00000E+00 1
  0.12422E+05  0.63265E+04  0.00000E+00 1
  0.14917E+05  0.63285E+04  0.00000E+00 1
  0.99392E+04  0.84174E+04  0.00000E+00 1
  0.12427E+05  0.84198E+04  0.00000E+00 1
  0.14914E+05  0.84221E+04  0.00000E+00 1
 ZONE I=           3 ,J=           3 , F=POINT
  0.14920E+05  0.42349E+04  0.00000E+00 1
  0.17428E+05  0.42380E+04  0.00000E+00 1
  0.19935E+05  0.42410E+04  0.00000E+00 1
  0.14917E+05  0.63285E+04  0.00000E+00 1
  0.17424E+05  0.63311E+04  0.00000E+00 1
  0.19932E+05  0.63337E+04  0.00000E+00 1
  0.14914E+05  0.84221E+04  0.00000E+00 1
  0.17421E+05  0.84243E+04  0.00000E+00 1
  0.19928E+05  0.84265E+04  0.00000E+00 1
 ZONE I=           3 ,J=           3 , F=POINT
 -0.19928E+05  0.84265E+04  0.00000E+00 1
 -0.17421E+05  0.84243E+04  0.00000E+00 1
 -0.14914E+05  0.84221E+04  0.00000E+00 1
 -0.19928E+05  0.10500E+05  0.00000E+00 1
 -0.17422E+05  0.10501E+05  0.00000E+00 1
 -0.14916E+05  0.10502E+05  0.00000E+00 1
 -0.19929E+05  0.12574E+05  0.00000E+00 1
 -0.17424E+05  0.12578E+05  0.00000E+00 1
 -0.14919E+05  0.12581E+05  0.00000E+00 1
 ZONE I=           3 ,J=           3 , F=POINT
 -0.14914E+05  0.84221E+04  0.00000E+00 1
 -0.12427E+05  0.84198E+04  0.00000E+00 1
 -0.99392E+04  0.84174E+04  0.00000E+00 1
 -0.14916E+05  0.10502E+05  0.00000E+00 1
 -0.12431E+05  0.10503E+05  0.00000E+00 1
 -0.99455E+04  0.10505E+05  0.00000E+00 1
 -0.14919E+05  0.12581E+05  0.00000E+00 1
 -0.12435E+05  0.12587E+05  0.00000E+00 1
 -0.99518E+04  0.12593E+05  0.00000E+00 1
 ZONE I=           3 ,J=           3 , F=POINT
 -0.99392E+04  0.84174E+04  0.00000E+00 1
 -0.74540E+04  0.84185E+04  0.00000E+00 1
 -0.49688E+04  0.84196E+04  0.00000E+00 1
 -0.99455E+04  0.10505E+05  0.00000E+00 1
 -0.74606E+04  0.10508E+05  0.00000E+00 1
 -0.49757E+04  0.10510E+05  0.00000E+00 1
 -0.99518E+04  0.12593E+05  0.00000E+00 1
 -0.74672E+04  0.12597E+05  0.00000E+00 1
 -0.49826E+04  0.12601E+05  0.00000E+00 1
 ZONE I=           3 ,J=           3 , F=POINT
 -0.49688E+04  0.84196E+04  0.00000E+00 1
 -0.24844E+04  0.84211E+04  0.00000E+00 1
  0.10447E-03  0.84226E+04  0.00000E+00 1
 -0.49757E+04  0.10510E+05  0.00000E+00 1
 -0.24878E+04  0.10512E+05  0.00000E+00 1
  0.39280E-04  0.10513E+05  0.00000E+00 1
 -0.49826E+04  0.12601E+05  0.00000E+00 1
 -0.24913E+04  0.12603E+05  0.00000E+00 1
 -0.25905E-04  0.12604E+05  0.00000E+00 1
 ZONE I=           3 ,J=           3 , F=POINT
  0.10447E-03  0.84226E+04  0.00000E+00 1
  0.24844E+04  0.84211E+04  0.00000E+00 1
  0.49688E+04  0.84196E+04  0.00000E+00 1
  0.39280E-04  0.10513E+05  0.00000E+00 1
  0.24878E+04  0.10512E+05  0.00000E+00 1
  0.49757E+04  0.10510E+05  0.00000E+00 1
 -0.25905E-04  0.12604E+05  0.00000E+00 1
  0.24913E+04  0.12603E+05  0.00000E+00 1
  0.49826E+04  0.12601E+05  0.00000E+00 1
 ZONE I=           3 ,J=           3 , F=POINT
  0.49688E+04  0.84196E+04  0.00000E+00 1
  0.74540E+04  0.84185E+04  0.00000E+00 1
  0.99392E+04  0.84174E+04  0.00000E+00 1
  0.49757E+04  0.10510E+05  0.00000E+00 1
  0.74606E+04  0.10508E+05  0.00000E+00 1
  0.99455E+04  0.10505E+05  0.00000E+00 1
  0.49826E+04  0.12601E+05  0.00000E+00 1
  0.74672E+04  0.12597E+05  0.00000E+00 1
  0.99518E+04  0.12593E+05  0.00000E+00 1
 ZONE I=           3 ,J=           3 , F=POINT
  0.99392E+04  0.84174E+04  0.00000E+00 1
  0.12427E+05  0.84198E+04  0.00000E+00 1
  0.14914E+05  0.84221E+04  0.00000E+00 1
  0.99455E+04  0.10505E+05  0.00000E+00 1
  0.12431E+05  0.10503E+05  0.00000E+00 1
  0.14916E+05  0.10502E+05  0.00000E+00 1
  0.99518E+04  0.12593E+05  0.00000E+00 1
  0.12435E+05  0.12587E+05  0.00000E+00 1
  0.14919E+05  0.12581E+05  0.00000E+00 1
 ZONE I=           3 ,J=           3 , F=POINT
  0.14914E+05  0.84221E+04  0.00000E+00 1
  0.17421E+05  0.84243E+04  0.00000E+00 1
  0.19928E+05  0.84265E+04  0.00000E+00 1
  0.14916E+05  0.10502E+05  0.00000E+00 1
  0.17422E+05  0.10501E+05  0.00000E+00 1
  0.19928E+05  0.10500E+05  0.00000E+00 1
  0.14919E+05  0.12581E+05  0.00000E+00 1
  0.17424E+05  0.12578E+05  0.00000E+00 1
  0.19929E+05  0.12574E+05  0.00000E+00 1
 ZONE I=           3 ,J=           3 , F=POINT
 -0.19929E+05  0.12574E+05  0.00000E+00 1
 -0.17424E+05  0.12578E+05  0.00000E+00 1
 -0.14919E+05  0.12581E+05  0.00000E+00 1
 -0.19933E+05  0.14667E+05  0.00000E+00 1
 -0.17428E+05  0.14671E+05  0.00000E+00 1
 -0.14923E+05  0.14674E+05  0.00000E+00 1
 -0.19937E+05  0.16759E+05  0.00000E+00 1
 -0.17432E+05  0.16764E+05  0.00000E+00 1
 -0.14928E+05  0.16768E+05  0.00000E+00 1
 ZONE I=           3 ,J=           3 , F=POINT
 -0.14919E+05  0.12581E+05  0.00000E+00 1
 -0.12435E+05  0.12587E+05  0.00000E+00 1
 -0.99518E+04  0.12593E+05  0.00000E+00 1
 -0.14923E+05  0.14674E+05  0.00000E+00 1
 -0.12440E+05  0.14682E+05  0.00000E+00 1
 -0.99568E+04  0.14689E+05  0.00000E+00 1
 -0.14928E+05  0.16768E+05  0.00000E+00 1
 -0.12445E+05  0.16776E+05  0.00000E+00 1
 -0.99618E+04  0.16785E+05  0.00000E+00 1
 ZONE I=           3 ,J=           3 , F=POINT
 -0.99518E+04  0.12593E+05  0.00000E+00 1
 -0.74672E+04  0.12597E+05  0.00000E+00 1
 -0.49826E+04  0.12601E+05  0.00000E+00 1
 -0.99568E+04  0.14689E+05  0.00000E+00 1
 -0.74714E+04  0.14694E+05  0.00000E+00 1
 -0.49861E+04  0.14699E+05  0.00000E+00 1
 -0.99618E+04  0.16785E+05  0.00000E+00 1
 -0.74756E+04  0.16791E+05  0.00000E+00 1
 -0.49895E+04  0.16796E+05  0.00000E+00 1
 ZONE I=           3 ,J=           3 , F=POINT
 -0.49826E+04  0.12601E+05  0.00000E+00 1
 -0.24913E+04  0.12603E+05  0.00000E+00 1
 -0.25905E-04  0.12604E+05  0.00000E+00 1
 -0.49861E+04  0.14699E+05  0.00000E+00 1
 -0.24930E+04  0.14700E+05  0.00000E+00 1
 -0.11854E-03  0.14702E+05  0.00000E+00 1
 -0.49895E+04  0.16796E+05  0.00000E+00 1
 -0.24948E+04  0.16798E+05  0.00000E+00 1
 -0.21118E-03  0.16799E+05  0.00000E+00 1
 ZONE I=           3 ,J=           3 , F=POINT
 -0.25905E-04  0.12604E+05  0.00000E+00 1
  0.24913E+04  0.12603E+05  0.00000E+00 1
  0.49826E+04  0.12601E+05  0.00000E+00 1
 -0.11854E-03  0.14702E+05  0.00000E+00 1
  0.24930E+04  0.14700E+05  0.00000E+00 1
  0.49861E+04  0.14699E+05  0.00000E+00 1
 -0.21118E-03  0.16799E+05  0.00000E+00 1
  0.24948E+04  0.16798E+05  0.00000E+00 1
  0.49895E+04  0.16796E+05  0.00000E+00 1
 ZONE I=           3 ,J=           3 , F=POINT
  0.49826E+04  0.12601E+05  0.00000E+00 1
  0.74672E+04  0.12597E+05  0.00000E+00 1
  0.99518E+04  0.12593E+05  0.00000E+00 1
  0.49861E+04  0.14699E+05  0.00000E+00 1
  0.74714E+04  0.14694E+05  0.00000E+00 1
  0.99568E+04  0.14689E+05  0.00000E+00 1
  0.49895E+04  0.16796E+05  0.00000E+00 1
  0.74756E+04  0.16791E+05  0.00000E+00 1
  0.99618E+04  0.16785E+05  0.00000E+00 1
 ZONE I=           3 ,J=           3 , F=POINT
  0.99518E+04  0.12593E+05  0.00000E+00 1
  0.12435E+05  0.12587E+05  0.00000E+00 1
  0.14919E+05  0.12581E+05  0.00000E+00 1
  0.99568E+04  0.14689E+05  0.00000E+00 1
  0.12440E+05  0.14682E+05  0.00000E+00 1
  0.14923E+05  0.14674E+05  0.00000E+00 1
  0.99618E+04  0.16785E+05  0.00000E+00 1
  0.12445E+05  0.16776E+05  0.00000E+00 1
  0.14928E+05  0.16768E+05  0.00000E+00 1
 ZONE I=           3 ,J=           3 , F=POINT
  0.14919E+05  0.12581E+05  0.00000E+00 1
  0.17424E+05  0.12578E+05  0.00000E+00 1
  0.19929E+05  0.12574E+05  0.00000E+00 1
  0.14923E+05  0.14674E+05  0.00000E+00 1
  0.17428E+05  0.14671E+05  0.00000E+00 1
  0.19933E+05  0.14667E+05  0.00000E+00 1
  0.14928E+05  0.16768E+05  0.00000E+00 1
  0.17432E+05  0.16764E+05  0.00000E+00 1
  0.19937E+05  0.16759E+05  0.00000E+00 1
 ZONE I=           3 ,J=           3 , F=POINT
 -0.19928E+05  0.84265E+04  0.00000E+00 1
 -0.22464E+05  0.84460E+04  0.00000E+00 1
 -0.25000E+05  0.84656E+04  0.00000E+00 1
 -0.19932E+05  0.63337E+04  0.00000E+00 1
 -0.22466E+05  0.63415E+04  0.00000E+00 1
 -0.25000E+05  0.63492E+04  0.00000E+00 1
 -0.19935E+05  0.42410E+04  0.00000E+00 1
 -0.22468E+05  0.42369E+04  0.00000E+00 1
 -0.25000E+05  0.42328E+04  0.00000E+00 1
 ZONE I=           3 ,J=           3 , F=POINT
 -0.19935E+05  0.42410E+04  0.00000E+00 1
 -0.22468E+05  0.42369E+04  0.00000E+00 1
 -0.25000E+05  0.42328E+04  0.00000E+00 1
 -0.19948E+05  0.21205E+04  0.00000E+00 1
 -0.22474E+05  0.21184E+04  0.00000E+00 1
 -0.25000E+05  0.21164E+04  0.00000E+00 1
 -0.19961E+05  0.29917E-04  0.00000E+00 1
 -0.22480E+05  0.56434E-07  0.00000E+00 1
 -0.25000E+05  0.17360E-08  0.00000E+00 1
 ZONE I=           3 ,J=           3 , F=POINT
 -0.19935E+05  0.42410E+04  0.00000E+00 1
 -0.19948E+05  0.21205E+04  0.00000E+00 1
 -0.19961E+05  0.29917E-04  0.00000E+00 1
 -0.17428E+05  0.42380E+04  0.00000E+00 1
 -0.17434E+05  0.21190E+04  0.00000E+00 1
 -0.17441E+05  0.23424E-03  0.00000E+00 1
 -0.14920E+05  0.42349E+04  0.00000E+00 1
 -0.14921E+05  0.21175E+04  0.00000E+00 1
 -0.14922E+05  0.14865E-01  0.00000E+00 1
 ZONE I=           3 ,J=           3 , F=POINT
 -0.14920E+05  0.42349E+04  0.00000E+00 1
 -0.14921E+05  0.21175E+04  0.00000E+00 1
 -0.14922E+05  0.14865E-01  0.00000E+00 1
 -0.12416E+05  0.42332E+04  0.00000E+00 1
 -0.12439E+05  0.21168E+04  0.00000E+00 1
 -0.12461E+05  0.43885E+00  0.00000E+00 1
 -0.99132E+04  0.42315E+04  0.00000E+00 1
 -0.99566E+04  0.21157E+04  0.00000E+00 1
 -0.10000E+05  0.65802E-13  0.00000E+00 1
 ZONE I=           3 ,J=           3 , F=POINT
 -0.99132E+04  0.42315E+04  0.00000E+00 1
 -0.99566E+04  0.21157E+04  0.00000E+00 1
 -0.10000E+05  0.65802E-13  0.00000E+00 1
 -0.74130E+04  0.42432E+04  0.00000E+00 1
 -0.73544E+04  0.21324E+04  0.00000E+00 1
 -0.72958E+04  0.21529E+02  0.00000E+00 1
 -0.49128E+04  0.42550E+04  0.00000E+00 1
 -0.47522E+04  0.21705E+04  0.00000E+00 1
 -0.45916E+04  0.85971E+02  0.00000E+00 1
 ZONE I=           3 ,J=           3 , F=POINT
 -0.49128E+04  0.42550E+04  0.00000E+00 1
 -0.47522E+04  0.21705E+04  0.00000E+00 1
 -0.45916E+04  0.85971E+02  0.00000E+00 1
 -0.24564E+04  0.42650E+04  0.00000E+00 1
 -0.23761E+04  0.21379E+04  0.00000E+00 1
 -0.22958E+04  0.10733E+02  0.00000E+00 1
  0.28255E-03  0.42751E+04  0.00000E+00 1
  0.14309E-03  0.22626E+04  0.00000E+00 1
  0.36217E-05  0.25000E+03  0.00000E+00 1
 ZONE I=           3 ,J=           3 , F=POINT
  0.28255E-03  0.42751E+04  0.00000E+00 1
  0.14309E-03  0.22626E+04  0.00000E+00 1
  0.36217E-05  0.25000E+03  0.00000E+00 1
  0.24564E+04  0.42650E+04  0.00000E+00 1
  0.23761E+04  0.21379E+04  0.00000E+00 1
  0.22958E+04  0.10733E+02  0.00000E+00 1
  0.49128E+04  0.42550E+04  0.00000E+00 1
  0.47522E+04  0.21705E+04  0.00000E+00 1
  0.45916E+04  0.85970E+02  0.00000E+00 1
 ZONE I=           3 ,J=           3 , F=POINT
  0.49128E+04  0.42550E+04  0.00000E+00 1
  0.47522E+04  0.21705E+04  0.00000E+00 1
  0.45916E+04  0.85970E+02  0.00000E+00 1
  0.74130E+04  0.42432E+04  0.00000E+00 1
  0.73544E+04  0.21324E+04  0.00000E+00 1
  0.72958E+04  0.21529E+02  0.00000E+00 1
  0.99132E+04  0.42315E+04  0.00000E+00 1
  0.99566E+04  0.21157E+04  0.00000E+00 1
  0.10000E+05  0.11787E-10  0.00000E+00 1
 ZONE I=           3 ,J=           3 , F=POINT
  0.99132E+04  0.42315E+04  0.00000E+00 1
  0.99566E+04  0.21157E+04  0.00000E+00 1
  0.10000E+05  0.11787E-10  0.00000E+00 1
  0.12416E+05  0.42332E+04  0.00000E+00 1
  0.12439E+05  0.21168E+04  0.00000E+00 1
  0.12461E+05  0.43885E+00  0.00000E+00 1
  0.14920E+05  0.42349E+04  0.00000E+00 1
  0.14921E+05  0.21175E+04  0.00000E+00 1
  0.14922E+05  0.14865E-01  0.00000E+00 1
 ZONE I=           3 ,J=           3 , F=POINT
  0.14920E+05  0.42349E+04  0.00000E+00 1
  0.14921E+05  0.21175E+04  0.00000E+00 1
  0.14922E+05  0.14865E-01  0.00000E+00 1
  0.17428E+05  0.42380E+04  0.00000E+00 1
  0.17434E+05  0.21190E+04  0.00000E+00 1
  0.17441E+05  0.23424E-03  0.00000E+00 1
  0.19935E+05  0.42410E+04  0.00000E+00 1
  0.19948E+05  0.21205E+04  0.00000E+00 1
  0.19961E+05  0.29917E-04  0.00000E+00 1
 ZONE I=           3 ,J=           3 , F=POINT
  0.19935E+05  0.42410E+04  0.00000E+00 1
  0.19948E+05  0.21205E+04  0.00000E+00 1
  0.19961E+05  0.29917E-04  0.00000E+00 1
  0.22468E+05  0.42369E+04  0.00000E+00 1
  0.22474E+05  0.21184E+04  0.00000E+00 1
  0.22480E+05  0.56434E-07  0.00000E+00 1
  0.25000E+05  0.42328E+04  0.00000E+00 1
  0.25000E+05  0.21164E+04  0.00000E+00 1
  0.25000E+05  0.17360E-08  0.00000E+00 1
 ZONE I=           3 ,J=           3 , F=POINT
  0.19935E+05  0.42410E+04  0.00000E+00 1
  0.22468E+05  0.42369E+04  0.00000E+00 1
  0.25000E+05  0.42328E+04  0.00000E+00 1
  0.19932E+05  0.63337E+04  0.00000E+00 1
  0.22466E+05  0.63415E+04  0.00000E+00 1
  0.25000E+05  0.63492E+04  0.00000E+00 1
  0.19928E+05  0.84265E+04  0.00000E+00 1
  0.22464E+05  0.84460E+04  0.00000E+00 1
  0.25000E+05  0.84656E+04  0.00000E+00 1
 ZONE I=           3 ,J=           3 , F=POINT
  0.19928E+05  0.84265E+04  0.00000E+00 1
  0.22464E+05  0.84460E+04  0.00000E+00 1
  0.25000E+05  0.84656E+04  0.00000E+00 1
  0.19928E+05  0.10500E+05  0.00000E+00 1
  0.22464E+05  0.10500E+05  0.00000E+00 1
  0.25000E+05  0.10500E+05  0.00000E+00 1
  0.19929E+05  0.12574E+05  0.00000E+00 1
  0.22464E+05  0.12554E+05  0.00000E+00 1
  0.25000E+05  0.12534E+05  0.00000E+00 1
 ZONE I=           3 ,J=           3 , F=POINT
  0.19929E+05  0.12574E+05  0.00000E+00 1
  0.22464E+05  0.12554E+05  0.00000E+00 1
  0.25000E+05  0.12534E+05  0.00000E+00 1
  0.19933E+05  0.14667E+05  0.00000E+00 1
  0.22466E+05  0.14659E+05  0.00000E+00 1
  0.25000E+05  0.14651E+05  0.00000E+00 1
  0.19937E+05  0.16759E+05  0.00000E+00 1
  0.22468E+05  0.16763E+05  0.00000E+00 1
  0.25000E+05  0.16767E+05  0.00000E+00 1
 ZONE I=           3 ,J=           3 , F=POINT
  0.19937E+05  0.16759E+05  0.00000E+00 1
  0.22468E+05  0.16763E+05  0.00000E+00 1
  0.25000E+05  0.16767E+05  0.00000E+00 1
  0.19949E+05  0.18880E+05  0.00000E+00 1
  0.22474E+05  0.18882E+05  0.00000E+00 1
  0.25000E+05  0.18884E+05  0.00000E+00 1
  0.19961E+05  0.21000E+05  0.00000E+00 1
  0.22480E+05  0.21000E+05  0.00000E+00 1
  0.25000E+05  0.21000E+05  0.00000E+00 1
 ZONE I=           3 ,J=           3 , F=POINT
  0.19937E+05  0.16759E+05  0.00000E+00 1
  0.19949E+05  0.18880E+05  0.00000E+00 1
  0.19961E+05  0.21000E+05  0.00000E+00 1
  0.17432E+05  0.16764E+05  0.00000E+00 1
  0.17437E+05  0.18882E+05  0.00000E+00 1
  0.17441E+05  0.21000E+05  0.00000E+00 1
  0.14928E+05  0.16768E+05  0.00000E+00 1
  0.14925E+05  0.18884E+05  0.00000E+00 1
  0.14922E+05  0.21000E+05  0.00000E+00 1
 ZONE I=           3 ,J=           3 , F=POINT
  0.14928E+05  0.16768E+05  0.00000E+00 1
  0.14925E+05  0.18884E+05  0.00000E+00 1
  0.14922E+05  0.21000E+05  0.00000E+00 1
  0.12445E+05  0.16776E+05  0.00000E+00 1
  0.12453E+05  0.18888E+05  0.00000E+00 1
  0.12461E+05  0.21000E+05  0.00000E+00 1
  0.99618E+04  0.16785E+05  0.00000E+00 1
  0.99809E+04  0.18893E+05  0.00000E+00 1
  0.10000E+05  0.21000E+05  0.00000E+00 1
 ZONE I=           3 ,J=           3 , F=POINT
  0.99618E+04  0.16785E+05  0.00000E+00 1
  0.99809E+04  0.18893E+05  0.00000E+00 1
  0.10000E+05  0.21000E+05  0.00000E+00 1
  0.74756E+04  0.16791E+05  0.00000E+00 1
  0.74878E+04  0.18895E+05  0.00000E+00 1
  0.75000E+04  0.21000E+05  0.00000E+00 1
  0.49895E+04  0.16796E+05  0.00000E+00 1
  0.49948E+04  0.18898E+05  0.00000E+00 1
  0.50000E+04  0.21000E+05  0.00000E+00 1
 ZONE I=           3 ,J=           3 , F=POINT
  0.49895E+04  0.16796E+05  0.00000E+00 1
  0.49948E+04  0.18898E+05  0.00000E+00 1
  0.50000E+04  0.21000E+05  0.00000E+00 1
  0.24948E+04  0.16798E+05  0.00000E+00 1
  0.24974E+04  0.18899E+05  0.00000E+00 1
  0.25000E+04  0.21000E+05  0.00000E+00 1
 -0.21118E-03  0.16799E+05  0.00000E+00 1
 -0.10740E-03  0.18900E+05  0.00000E+00 1
 -0.36217E-05  0.21000E+05  0.00000E+00 1
 ZONE I=           3 ,J=           3 , F=POINT
 -0.21118E-03  0.16799E+05  0.00000E+00 1
 -0.10740E-03  0.18900E+05  0.00000E+00 1
 -0.36217E-05  0.21000E+05  0.00000E+00 1
 -0.24948E+04  0.16798E+05  0.00000E+00 1
 -0.24974E+04  0.18899E+05  0.00000E+00 1
 -0.25000E+04  0.21000E+05  0.00000E+00 1
 -0.49895E+04  0.16796E+05  0.00000E+00 1
 -0.49948E+04  0.18898E+05  0.00000E+00 1
 -0.50000E+04  0.21000E+05  0.00000E+00 1
 ZONE I=           3 ,J=           3 , F=POINT
 -0.49895E+04  0.16796E+05  0.00000E+00 1
 -0.49948E+04  0.18898E+05  0.00000E+00 1
 -0.50000E+04  0.21000E+05  0.00000E+00 1
 -0.74756E+04  0.16791E+05  0.00000E+00 1
 -0.74878E+04  0.18895E+05  0.00000E+00 1
 -0.75000E+04  0.21000E+05  0.00000E+00 1
 -0.99618E+04  0.16785E+05  0.00000E+00 1
 -0.99809E+04  0.18893E+05  0.00000E+00 1
 -0.10000E+05  0.21000E+05  0.00000E+00 1
 ZONE I=           3 ,J=           3 , F=POINT
 -0.99618E+04  0.16785E+05  0.00000E+00 1
 -0.99809E+04  0.18893E+05  0.00000E+00 1
 -0.10000E+05  0.21000E+05  0.00000E+00 1
 -0.12445E+05  0.16776E+05  0.00000E+00 1
 -0.12453E+05  0.18888E+05  0.00000E+00 1
 -0.12461E+05  0.21000E+05  0.00000E+00 1
 -0.14928E+05  0.16768E+05  0.00000E+00 1
 -0.14925E+05  0.18884E+05  0.00000E+00 1
 -0.14922E+05  0.21000E+05  0.00000E+00 1
 ZONE I=           3 ,J=           3 , F=POINT
 -0.14928E+05  0.16768E+05  0.00000E+00 1
 -0.14925E+05  0.18884E+05  0.00000E+00 1
 -0.14922E+05  0.21000E+05  0.00000E+00 1
 -0.17432E+05  0.16764E+05  0.00000E+00 1
 -0.17437E+05  0.18882E+05  0.00000E+00 1
 -0.17441E+05  0.21000E+05  0.00000E+00 1
 -0.19937E+05  0.16759E+05  0.00000E+00 1
 -0.19949E+05  0.18880E+05  0.00000E+00 1
 -0.19961E+05  0.21000E+05  0.00000E+00 1
 ZONE I=           3 ,J=           3 , F=POINT
 -0.19937E+05  0.16759E+05  0.00000E+00 1
 -0.19949E+05  0.18880E+05  0.00000E+00 1
 -0.19961E+05  0.21000E+05  0.00000E+00 1
 -0.22468E+05  0.16763E+05  0.00000E+00 1
 -0.22474E+05  0.18882E+05  0.00000E+00 1
 -0.22480E+05  0.21000E+05  0.00000E+00 1
 -0.25000E+05  0.16767E+05  0.00000E+00 1
 -0.25000E+05  0.18884E+05  0.00000E+00 1
 -0.25000E+05  0.21000E+05  0.00000E+00 1
 ZONE I=           3 ,J=           3 , F=POINT
 -0.19937E+05  0.16759E+05  0.00000E+00 1
 -0.22468E+05  0.16763E+05  0.00000E+00 1
 -0.25000E+05  0.16767E+05  0.00000E+00 1
 -0.19933E+05  0.14667E+05  0.00000E+00 1
 -0.22466E+05  0.14659E+05  0.00000E+00 1
 -0.25000E+05  0.14651E+05  0.00000E+00 1
 -0.19929E+05  0.12574E+05  0.00000E+00 1
 -0.22464E+05  0.12554E+05  0.00000E+00 1
 -0.25000E+05  0.12534E+05  0.00000E+00 1
 ZONE I=           3 ,J=           3 , F=POINT
 -0.19929E+05  0.12574E+05  0.00000E+00 1
 -0.22464E+05  0.12554E+05  0.00000E+00 1
 -0.25000E+05  0.12534E+05  0.00000E+00 1
 -0.19928E+05  0.10500E+05  0.00000E+00 1
 -0.22464E+05  0.10500E+05  0.00000E+00 1
 -0.25000E+05  0.10500E+05  0.00000E+00 1
 -0.19928E+05  0.84265E+04  0.00000E+00 1
 -0.22464E+05  0.84460E+04  0.00000E+00 1
 -0.25000E+05  0.84656E+04  0.00000E+00 1
